/*--------------------------------*- C++ -*----------------------------------*\
| =========                 |                                                 |
| \\      /  F ield         | foam-extend: Open Source CFD                    |
|  \\    /   O peration     | Version:     5.0                                |
|   \\  /    A nd           | Web:         http://www.foam-extend.org         |
|    \\/     M anipulation  |                                                 |
\*---------------------------------------------------------------------------*/
FoamFile
{
    version     2.0;
    format      ascii;
    class       regIOobject;
    location    "0.015/uniform";
    object      profilingInfo;
}
// * * * * * * * * * * * * * * * * * * * * * * * * * * * * * * * * * * * * * //

profilingInfo
(

    {
        id              13;
        parentId        12;
        description     "Foam::Time::writeObject - outputTime";
        calls           3;
        totalTime       0.043883;
        childTime       0;
        onStack         1;
    }

    {
        id              12;
        parentId        1;
        description     "Foam::Time::writeObject";
        calls           3;
        totalTime       0.043922;
        childTime       0.043883;
        onStack         1;
    }

    {
        id              1;
        description     "application::main";
        calls           1;
        totalTime       0.182211;
        childTime       0.123966;
        onStack         1;
    }

    {
        id              5;
        parentId        1;
        description     "functionObjectList::read";
        calls           1;
        totalTime       3e-06;
        childTime       0;
        onStack         0;
    }

    {
        id              9;
        parentId        1;
        description     "fvMatrix::solve_U";
        calls           6;
        totalTime       0.005543;
        childTime       0.005184;
        onStack         0;
    }

    {
        id              6;
        parentId        1;
        description     "fvMatrix::solve_Voltage";
        calls           6;
        totalTime       0.003538;
        childTime       0.003354;
        onStack         0;
    }

    {
        id              2;
        parentId        1;
        description     "fvMatrix::solve_pd";
        calls           13;
        totalTime       0.07096;
        childTime       0.070304;
        onStack         0;
    }

    {
        id              10;
        parentId        9;
        description     "lduMatrix::solver_Ux";
        calls           6;
        totalTime       0.002651;
        childTime       0;
        onStack         0;
    }

    {
        id              11;
        parentId        9;
        description     "lduMatrix::solver_Uy";
        calls           6;
        totalTime       0.002533;
        childTime       0;
        onStack         0;
    }

    {
        id              7;
        parentId        6;
        description     "lduMatrix::solver_Voltage";
        calls           6;
        totalTime       0.003354;
        childTime       3.2e-05;
        onStack         0;
    }

    {
        id              3;
        parentId        2;
        description     "lduMatrix::solver_pd";
        calls           13;
        totalTime       0.070304;
        childTime       0.00085;
        onStack         0;
    }

    {
        id              4;
        parentId        3;
        description     "lduMatrix::solver_topLevelCorr";
        calls           260;
        totalTime       0.00085;
        childTime       0;
        onStack         0;
    }

    {
        id              8;
        parentId        7;
        description     "lduMatrix::solver_topLevelCorr";
        calls           6;
        totalTime       3.2e-05;
        childTime       0;
        onStack         0;
    }
);


// ************************************************************************* //
