/*--------------------------------*- C++ -*----------------------------------*\
| =========                 |                                                 |
| \\      /  F ield         | foam-extend: Open Source CFD                    |
|  \\    /   O peration     | Version:     5.0                                |
|   \\  /    A nd           | Web:         http://www.foam-extend.org         |
|    \\/     M anipulation  |                                                 |
\*---------------------------------------------------------------------------*/
FoamFile
{
    version     2.0;
    format      ascii;
    class       regIOobject;
    location    "0.055/uniform";
    object      profilingInfo;
}
// * * * * * * * * * * * * * * * * * * * * * * * * * * * * * * * * * * * * * //

profilingInfo
(

    {
        id              13;
        parentId        12;
        description     "Foam::Time::writeObject - outputTime";
        calls           11;
        totalTime       0.167072;
        childTime       0;
        onStack         1;
    }

    {
        id              12;
        parentId        1;
        description     "Foam::Time::writeObject";
        calls           11;
        totalTime       0.167151;
        childTime       0.167072;
        onStack         1;
    }

    {
        id              1;
        description     "application::main";
        calls           1;
        totalTime       0.648518;
        childTime       0.454068;
        onStack         1;
    }

    {
        id              5;
        parentId        1;
        description     "functionObjectList::read";
        calls           1;
        totalTime       3e-06;
        childTime       0;
        onStack         0;
    }

    {
        id              9;
        parentId        1;
        description     "fvMatrix::solve_U";
        calls           22;
        totalTime       0.028809;
        childTime       0.027545;
        onStack         0;
    }

    {
        id              6;
        parentId        1;
        description     "fvMatrix::solve_Voltage";
        calls           22;
        totalTime       0.013276;
        childTime       0.01254;
        onStack         0;
    }

    {
        id              2;
        parentId        1;
        description     "fvMatrix::solve_pd";
        calls           45;
        totalTime       0.244829;
        childTime       0.242947;
        onStack         0;
    }

    {
        id              10;
        parentId        9;
        description     "lduMatrix::solver_Ux";
        calls           22;
        totalTime       0.01387;
        childTime       0;
        onStack         0;
    }

    {
        id              11;
        parentId        9;
        description     "lduMatrix::solver_Uy";
        calls           22;
        totalTime       0.013675;
        childTime       0;
        onStack         0;
    }

    {
        id              7;
        parentId        6;
        description     "lduMatrix::solver_Voltage";
        calls           22;
        totalTime       0.01254;
        childTime       0.000123;
        onStack         0;
    }

    {
        id              3;
        parentId        2;
        description     "lduMatrix::solver_pd";
        calls           45;
        totalTime       0.242947;
        childTime       0.003002;
        onStack         0;
    }

    {
        id              4;
        parentId        3;
        description     "lduMatrix::solver_topLevelCorr";
        calls           900;
        totalTime       0.003002;
        childTime       0;
        onStack         0;
    }

    {
        id              8;
        parentId        7;
        description     "lduMatrix::solver_topLevelCorr";
        calls           22;
        totalTime       0.000123;
        childTime       0;
        onStack         0;
    }
);


// ************************************************************************* //
