/*--------------------------------*- C++ -*----------------------------------*\
| =========                 |                                                 |
| \\      /  F ield         | foam-extend: Open Source CFD                    |
|  \\    /   O peration     | Version:     5.0                                |
|   \\  /    A nd           | Web:         http://www.foam-extend.org         |
|    \\/     M anipulation  |                                                 |
\*---------------------------------------------------------------------------*/
FoamFile
{
    version     2.0;
    format      ascii;
    class       volVectorField;
    location    "0.095";
    object      currentDensity;
}
// * * * * * * * * * * * * * * * * * * * * * * * * * * * * * * * * * * * * * //

dimensions      [0 -2 0 0 0 1 0];

internalField   nonuniform List<vector> 
4000
(
(0 0 825.271)
(0 0 1837.96)
(0 0 3194.23)
(0 0 3729.44)
(0 0 3634.26)
(0 0 3207.61)
(0 0 1924.35)
(0 0 -1080.15)
(0 0 -1019.31)
(0 0 4490.17)
(0 0 12946.2)
(0 0 17271.1)
(0 0 18518.3)
(0 0 13338.7)
(0 0 4070.3)
(0 0 -117.293)
(0 0 285.802)
(0 0 -1287.91)
(0 0 -1679.85)
(0 0 -3500.23)
(0 0 -2486.22)
(0 0 853.559)
(0 0 6612.49)
(0 0 15093.3)
(0 0 25173.9)
(0 0 32208.9)
(0 0 45289.1)
(0 0 53951.4)
(0 0 47171.3)
(0 0 43537.9)
(0 0 41595.3)
(0 0 37703.4)
(0 0 31494.5)
(0 0 26037.3)
(0 0 21434.2)
(0 0 20070)
(0 0 19508.7)
(0 0 17724.2)
(0 0 17601.2)
(0 0 16576.4)
(0 0 16187.6)
(0 0 12475.8)
(0 0 11720.8)
(0 0 11415.2)
(0 0 10265.6)
(0 0 9451.19)
(0 0 7502.6)
(0 0 7018.14)
(0 0 6194.9)
(0 0 6259.6)
(0 0 5499.7)
(0 0 4988.8)
(0 0 3739.08)
(0 0 3224.37)
(0 0 3055.67)
(0 0 3080.11)
(0 0 2189.2)
(0 0 2158.6)
(0 0 1576.43)
(0 0 1560.78)
(0 0 1240.32)
(0 0 906.328)
(0 0 1021.47)
(0 0 907.224)
(0 0 812.796)
(0 0 688.228)
(0 0 719.679)
(0 0 647.072)
(0 0 600.162)
(0 0 507.173)
(0 0 345.375)
(0 0 206.801)
(0 0 114.201)
(0 0 23.1288)
(0 0 12.3531)
(0 0 29.1717)
(0 0 51.1302)
(0 0 40.3491)
(0 0 53.4664)
(0 0 115.407)
(0 0 -16.3809)
(0 0 -10.144)
(0 0 -119.424)
(0 0 -228.256)
(0 0 -359.059)
(0 0 -375.556)
(0 0 -682.362)
(0 0 -577.471)
(0 0 -542.04)
(0 0 -655.5)
(0 0 -433.896)
(0 0 -311.743)
(0 0 -256.27)
(0 0 -176.823)
(0 0 -142.11)
(0 0 -104.198)
(0 0 -53.9603)
(0 0 36.8207)
(0 0 162.944)
(0 0 281.34)
(0 0 1069.88)
(0 0 3155.66)
(0 0 5035.58)
(0 0 5769.16)
(0 0 5353.09)
(0 0 3692.96)
(0 0 2238.8)
(0 0 -2662.58)
(0 0 -5684.25)
(0 0 -2961.98)
(0 0 608.766)
(0 0 -3375.43)
(0 0 -8136.98)
(0 0 -10922.4)
(0 0 -18943.5)
(0 0 -16683.9)
(0 0 -13563.4)
(0 0 -9668)
(0 0 -7107.22)
(0 0 -12752.7)
(0 0 -19258.4)
(0 0 -16416.8)
(0 0 -6164.9)
(0 0 5053.35)
(0 0 15837.3)
(0 0 22953.4)
(0 0 31956.6)
(0 0 53063.6)
(0 0 42556.4)
(0 0 33506.5)
(0 0 22601)
(0 0 24015.5)
(0 0 27086.3)
(0 0 30071.3)
(0 0 32102.9)
(0 0 31326.7)
(0 0 33777.9)
(0 0 33037.4)
(0 0 31290.4)
(0 0 28298.3)
(0 0 22215)
(0 0 16447.2)
(0 0 13426.4)
(0 0 11512.7)
(0 0 10919.8)
(0 0 8676.82)
(0 0 8065.72)
(0 0 6486.83)
(0 0 6182.54)
(0 0 5128.89)
(0 0 5463.55)
(0 0 4769.8)
(0 0 4752.69)
(0 0 3974.49)
(0 0 4034.54)
(0 0 3338.07)
(0 0 3608.92)
(0 0 2914.1)
(0 0 3189.51)
(0 0 2668.78)
(0 0 1797.3)
(0 0 2216.26)
(0 0 1561.57)
(0 0 1920.35)
(0 0 1293.54)
(0 0 1213.62)
(0 0 1528.09)
(0 0 1114.72)
(0 0 1086.4)
(0 0 998.533)
(0 0 710.064)
(0 0 390.273)
(0 0 243.603)
(0 0 115.894)
(0 0 83.4125)
(0 0 47.7731)
(0 0 301.642)
(0 0 199.296)
(0 0 128.104)
(0 0 407.64)
(0 0 74.3356)
(0 0 240.408)
(0 0 -359.365)
(0 0 -67.0665)
(0 0 -219.278)
(0 0 -858.848)
(0 0 -898.078)
(0 0 -1289.2)
(0 0 -1127.57)
(0 0 -1322.86)
(0 0 -878.785)
(0 0 -582.943)
(0 0 -518.742)
(0 0 -363.879)
(0 0 -297.377)
(0 0 -206.414)
(0 0 -78.2864)
(0 0 106.913)
(0 0 316.116)
(0 0 491.46)
(0 0 407.279)
(0 0 2999.13)
(0 0 3671.9)
(0 0 3824.3)
(0 0 3854.15)
(0 0 2793.81)
(0 0 2588.97)
(0 0 -975.374)
(0 0 -5471.83)
(0 0 -7110.7)
(0 0 -9601.83)
(0 0 -16588.5)
(0 0 -19356.9)
(0 0 -21467.9)
(0 0 -23826.6)
(0 0 -19576.6)
(0 0 -14097.3)
(0 0 -9713.54)
(0 0 -3869.76)
(0 0 -7095.65)
(0 0 -7926.68)
(0 0 -2235.42)
(0 0 575.026)
(0 0 18909.2)
(0 0 22915.2)
(0 0 13116.1)
(0 0 22230)
(0 0 36043.8)
(0 0 26872.8)
(0 0 18442)
(0 0 14095.6)
(0 0 13518.8)
(0 0 15335)
(0 0 23629.4)
(0 0 31197.8)
(0 0 28975.6)
(0 0 32783.5)
(0 0 34978.1)
(0 0 29243.6)
(0 0 26014.9)
(0 0 21636.7)
(0 0 17661.5)
(0 0 14735.4)
(0 0 12813.2)
(0 0 10962.1)
(0 0 8432.25)
(0 0 7657.33)
(0 0 6729.91)
(0 0 5673.71)
(0 0 4974.26)
(0 0 4053.56)
(0 0 4409.55)
(0 0 3576.26)
(0 0 3599.79)
(0 0 2710.12)
(0 0 2645.34)
(0 0 3176.09)
(0 0 2472.62)
(0 0 2764.98)
(0 0 2136.72)
(0 0 2535.19)
(0 0 2214.23)
(0 0 1413.38)
(0 0 1935.3)
(0 0 1430.35)
(0 0 1791.21)
(0 0 1288.28)
(0 0 1266.67)
(0 0 1558.24)
(0 0 866.39)
(0 0 944.456)
(0 0 498.885)
(0 0 474.154)
(0 0 252.321)
(0 0 286.346)
(0 0 376.536)
(0 0 372.19)
(0 0 677.903)
(0 0 440.716)
(0 0 334.438)
(0 0 502.015)
(0 0 395.134)
(0 0 -173.291)
(0 0 20.5928)
(0 0 -645.211)
(0 0 -573.74)
(0 0 -1060.41)
(0 0 -1057.91)
(0 0 -1204.72)
(0 0 -1140.29)
(0 0 -889.812)
(0 0 -631.487)
(0 0 -419.401)
(0 0 -373.104)
(0 0 -329.804)
(0 0 -214.32)
(0 0 -56.4892)
(0 0 145.855)
(0 0 382.37)
(0 0 527.161)
(0 0 293.184)
(0 0 3095.64)
(0 0 3405.92)
(0 0 2991.52)
(0 0 2059.24)
(0 0 1593.52)
(0 0 597.802)
(0 0 -385.822)
(0 0 -3855.58)
(0 0 -6614.91)
(0 0 -13911.6)
(0 0 -16842.1)
(0 0 -16314.7)
(0 0 -19742.7)
(0 0 -22151.8)
(0 0 -22013.4)
(0 0 -17562.7)
(0 0 -8238.25)
(0 0 2130.83)
(0 0 10046.7)
(0 0 5840.88)
(0 0 2687.3)
(0 0 -6808.57)
(0 0 10543)
(0 0 10353.9)
(0 0 5255.98)
(0 0 476.071)
(0 0 -2224.7)
(0 0 -1978.28)
(0 0 2640.29)
(0 0 13420.4)
(0 0 4559.38)
(0 0 4762.76)
(0 0 8876.42)
(0 0 20272.9)
(0 0 24112.5)
(0 0 22350.3)
(0 0 19224.5)
(0 0 18177.8)
(0 0 15263)
(0 0 15063.4)
(0 0 17347.9)
(0 0 14113.4)
(0 0 12554.2)
(0 0 10450.2)
(0 0 9032.18)
(0 0 6851.18)
(0 0 6681.21)
(0 0 6632.48)
(0 0 4177.79)
(0 0 4255.46)
(0 0 3591.36)
(0 0 3812.98)
(0 0 3050.56)
(0 0 3170.57)
(0 0 2496.12)
(0 0 2708.68)
(0 0 2105.88)
(0 0 2337.31)
(0 0 1774.21)
(0 0 2090.84)
(0 0 1582.99)
(0 0 1809.44)
(0 0 1329.97)
(0 0 1291.12)
(0 0 1809.64)
(0 0 1362.02)
(0 0 1677.69)
(0 0 1358.96)
(0 0 686.306)
(0 0 811.295)
(0 0 792.123)
(0 0 444.875)
(0 0 472.578)
(0 0 409.222)
(0 0 496.522)
(0 0 650.138)
(0 0 629.01)
(0 0 901.366)
(0 0 534.542)
(0 0 646.568)
(0 0 200.82)
(0 0 210.906)
(0 0 -254.301)
(0 0 -802.044)
(0 0 -924.275)
(0 0 -876.907)
(0 0 -1033.89)
(0 0 -1047.74)
(0 0 -957.122)
(0 0 -882.732)
(0 0 -561.436)
(0 0 -328.214)
(0 0 -331.99)
(0 0 -303.814)
(0 0 -170.726)
(0 0 -6.5706)
(0 0 167.752)
(0 0 413.943)
(0 0 422.796)
(0 0 734.095)
(0 0 2507.34)
(0 0 2969.62)
(0 0 2081.03)
(0 0 1773.73)
(0 0 782.12)
(0 0 610.901)
(0 0 -1031.38)
(0 0 -3243.88)
(0 0 -5149.31)
(0 0 -12807.7)
(0 0 -15437.6)
(0 0 -10362.7)
(0 0 -15580.6)
(0 0 -21108.9)
(0 0 -12737.3)
(0 0 -13416.2)
(0 0 -4639.2)
(0 0 4025.66)
(0 0 154.243)
(0 0 27648)
(0 0 16793.5)
(0 0 -2866.19)
(0 0 5882.29)
(0 0 -3058.33)
(0 0 -933.016)
(0 0 2083.39)
(0 0 -4543.12)
(0 0 -9029.95)
(0 0 -3163.58)
(0 0 8620.21)
(0 0 -8554.68)
(0 0 -23.4358)
(0 0 3134.1)
(0 0 10544.9)
(0 0 18052.1)
(0 0 9403.44)
(0 0 10324.2)
(0 0 7871.99)
(0 0 7691.41)
(0 0 15635.2)
(0 0 17812.5)
(0 0 13883.8)
(0 0 11447.4)
(0 0 10188.2)
(0 0 9508.64)
(0 0 8069.1)
(0 0 7619.89)
(0 0 6615.11)
(0 0 5063.09)
(0 0 3515.86)
(0 0 3785.42)
(0 0 3095.66)
(0 0 3387.02)
(0 0 2657.22)
(0 0 2883.54)
(0 0 2180.51)
(0 0 2328.67)
(0 0 1775.93)
(0 0 1976.65)
(0 0 1521.01)
(0 0 1875.25)
(0 0 1525.13)
(0 0 1838.52)
(0 0 1452.31)
(0 0 1404.63)
(0 0 1524.02)
(0 0 1373.57)
(0 0 740.706)
(0 0 822.032)
(0 0 1274.33)
(0 0 585.737)
(0 0 651.209)
(0 0 429.467)
(0 0 557.54)
(0 0 604.724)
(0 0 659.714)
(0 0 854.99)
(0 0 757.412)
(0 0 897.523)
(0 0 513.213)
(0 0 455.934)
(0 0 34.1974)
(0 0 -14.668)
(0 0 -612.547)
(0 0 -703.591)
(0 0 -847.439)
(0 0 -999.425)
(0 0 -830.74)
(0 0 -980.543)
(0 0 -490.971)
(0 0 -723.385)
(0 0 -119.101)
(0 0 -266.251)
(0 0 -267.854)
(0 0 -92.1756)
(0 0 45.7134)
(0 0 191.12)
(0 0 419.835)
(0 0 378.682)
(0 0 1055.58)
(0 0 1817.33)
(0 0 2526.78)
(0 0 2197.59)
(0 0 1302.96)
(0 0 822.784)
(0 0 21.8555)
(0 0 -861.977)
(0 0 -3560.17)
(0 0 -4264.39)
(0 0 -11663.5)
(0 0 -14335)
(0 0 -7462.42)
(0 0 -13825.5)
(0 0 -18910.8)
(0 0 -3540.61)
(0 0 -15060.5)
(0 0 -12761.8)
(0 0 -2485.73)
(0 0 -2192.03)
(0 0 16260.5)
(0 0 28780.9)
(0 0 8966.71)
(0 0 -2349.22)
(0 0 -8248.87)
(0 0 -8270.35)
(0 0 619.823)
(0 0 1999.82)
(0 0 -2620.25)
(0 0 -8000.66)
(0 0 -11155)
(0 0 -6209.03)
(0 0 -7616.17)
(0 0 -4703.92)
(0 0 -1735.63)
(0 0 5253.54)
(0 0 1315.58)
(0 0 3108.44)
(0 0 6822.08)
(0 0 7926.03)
(0 0 7986.69)
(0 0 12960.2)
(0 0 15595.8)
(0 0 11459.3)
(0 0 10521.8)
(0 0 10121)
(0 0 10215.3)
(0 0 8424.64)
(0 0 6821.78)
(0 0 5729.44)
(0 0 3672.09)
(0 0 3638.78)
(0 0 2953)
(0 0 3228.44)
(0 0 2720.83)
(0 0 2919.37)
(0 0 2662.41)
(0 0 1825.58)
(0 0 2105.08)
(0 0 1504.51)
(0 0 1744.47)
(0 0 1387.82)
(0 0 1814.29)
(0 0 1572.8)
(0 0 2106.13)
(0 0 1747.19)
(0 0 1019.28)
(0 0 774.015)
(0 0 894.362)
(0 0 998.015)
(0 0 1292.27)
(0 0 640.149)
(0 0 474.031)
(0 0 605.258)
(0 0 502.096)
(0 0 678.364)
(0 0 762.754)
(0 0 784.506)
(0 0 958.628)
(0 0 733.667)
(0 0 752.521)
(0 0 320.389)
(0 0 205.984)
(0 0 -393.742)
(0 0 -521.439)
(0 0 -654.764)
(0 0 -892.544)
(0 0 -741)
(0 0 -966.977)
(0 0 -392.13)
(0 0 -330.991)
(0 0 -569.64)
(0 0 -168.058)
(0 0 -109.838)
(0 0 -129.25)
(0 0 44.4478)
(0 0 119.7)
(0 0 158.63)
(0 0 384.375)
(0 0 243.485)
(0 0 852.609)
(0 0 1660.07)
(0 0 2038.61)
(0 0 1865.77)
(0 0 1452.01)
(0 0 355.559)
(0 0 200.139)
(0 0 -1353.01)
(0 0 -4119.22)
(0 0 -4120.5)
(0 0 -10812.5)
(0 0 -13333)
(0 0 -7459.59)
(0 0 -15932.3)
(0 0 -21496)
(0 0 -15788.2)
(0 0 -15681.4)
(0 0 -18577.1)
(0 0 -10129.1)
(0 0 5116.08)
(0 0 5098.26)
(0 0 15097.2)
(0 0 3233.87)
(0 0 -5752.93)
(0 0 -5943.6)
(0 0 -4803.9)
(0 0 -4247.74)
(0 0 -3156.05)
(0 0 -2757.49)
(0 0 2328.92)
(0 0 -8294.36)
(0 0 -11776.7)
(0 0 -11887.4)
(0 0 -11083.6)
(0 0 -5339.48)
(0 0 -4492.24)
(0 0 -2031.87)
(0 0 -2989.05)
(0 0 -5394.14)
(0 0 -2121.62)
(0 0 -1868.48)
(0 0 -263.292)
(0 0 15988.2)
(0 0 12100.6)
(0 0 11151.4)
(0 0 10849.6)
(0 0 11862.1)
(0 0 9439.57)
(0 0 7389.5)
(0 0 5944.45)
(0 0 3820.91)
(0 0 3249.54)
(0 0 3364.58)
(0 0 2781.35)
(0 0 2963.29)
(0 0 2328.14)
(0 0 2388.09)
(0 0 1843.56)
(0 0 2028.14)
(0 0 1794.41)
(0 0 1257.64)
(0 0 1463.95)
(0 0 1197.17)
(0 0 1514.33)
(0 0 2018.1)
(0 0 1444.44)
(0 0 1570.94)
(0 0 1082.79)
(0 0 1537.4)
(0 0 1413.82)
(0 0 1023.74)
(0 0 1102.97)
(0 0 754.588)
(0 0 454.41)
(0 0 612.548)
(0 0 626.679)
(0 0 788.379)
(0 0 909.488)
(0 0 804.34)
(0 0 937.564)
(0 0 593.434)
(0 0 504.514)
(0 0 7.6931)
(0 0 -505.702)
(0 0 -499.618)
(0 0 -624.615)
(0 0 -711.217)
(0 0 -1077.97)
(0 0 -963.143)
(0 0 -307.1)
(0 0 -607.718)
(0 0 -45.496)
(0 0 86.0956)
(0 0 -92.0002)
(0 0 99.6917)
(0 0 53.3585)
(0 0 148.281)
(0 0 181.868)
(0 0 207.421)
(0 0 117.056)
(0 0 584.124)
(0 0 1808.14)
(0 0 2334.37)
(0 0 2242.85)
(0 0 1285.88)
(0 0 391.03)
(0 0 -536.322)
(0 0 -1522.62)
(0 0 -3889.52)
(0 0 -4004.68)
(0 0 -9350.51)
(0 0 -12936.2)
(0 0 -9296.94)
(0 0 -16141.7)
(0 0 -21228.3)
(0 0 -21785.1)
(0 0 -20687.4)
(0 0 -16981.7)
(0 0 -9185.01)
(0 0 5070.24)
(0 0 15619.9)
(0 0 17083)
(0 0 1421.74)
(0 0 -2109.63)
(0 0 -3447.41)
(0 0 -14718.8)
(0 0 -13056.3)
(0 0 4575.77)
(0 0 -5147.67)
(0 0 -18576.4)
(0 0 -9728.33)
(0 0 -16474.5)
(0 0 -16307.4)
(0 0 -13899.7)
(0 0 -8157.66)
(0 0 -9853.78)
(0 0 -9319.09)
(0 0 -7849.64)
(0 0 -9625.59)
(0 0 -8178.87)
(0 0 -5640.87)
(0 0 -5571.89)
(0 0 4227.62)
(0 0 7541.67)
(0 0 9309.91)
(0 0 11288)
(0 0 12268.1)
(0 0 10999.1)
(0 0 8078.97)
(0 0 7126.68)
(0 0 6577.51)
(0 0 5133.93)
(0 0 3626.34)
(0 0 3477.93)
(0 0 2801.26)
(0 0 2757.9)
(0 0 2169.54)
(0 0 2096.05)
(0 0 1512.52)
(0 0 1315.26)
(0 0 1591.39)
(0 0 1064.83)
(0 0 1238.13)
(0 0 1884.5)
(0 0 1486.78)
(0 0 1729.8)
(0 0 1424.52)
(0 0 1453.42)
(0 0 1153.41)
(0 0 1045.43)
(0 0 1274.53)
(0 0 1078.04)
(0 0 530.066)
(0 0 609.068)
(0 0 472.435)
(0 0 667.774)
(0 0 765.471)
(0 0 903.153)
(0 0 912.208)
(0 0 764.311)
(0 0 755.154)
(0 0 339.379)
(0 0 87.3528)
(0 0 -334.917)
(0 0 -296.447)
(0 0 -470.494)
(0 0 -1050.36)
(0 0 -850.469)
(0 0 -1119.22)
(0 0 -697.375)
(0 0 -56.1584)
(0 0 -290.369)
(0 0 -82.6208)
(0 0 226.869)
(0 0 164.105)
(0 0 62.2193)
(0 0 94.8907)
(0 0 212.97)
(0 0 58.7144)
(0 0 6.25909)
(0 0 288.557)
(0 0 1620.91)
(0 0 2591.94)
(0 0 2072.06)
(0 0 1576.63)
(0 0 59.4262)
(0 0 -404.799)
(0 0 -1571.41)
(0 0 -3584.32)
(0 0 -4296.21)
(0 0 -8196.58)
(0 0 -11735.1)
(0 0 -9365.94)
(0 0 -15375.1)
(0 0 -15534.9)
(0 0 -21126.9)
(0 0 -19475.4)
(0 0 -13594)
(0 0 -1346.14)
(0 0 6563.01)
(0 0 5546.13)
(0 0 7201.31)
(0 0 10135.1)
(0 0 -4554.52)
(0 0 -4076.79)
(0 0 -21144.7)
(0 0 -16493.5)
(0 0 -3668.37)
(0 0 -9001.29)
(0 0 -12050)
(0 0 -14935.4)
(0 0 -16463)
(0 0 -18012.7)
(0 0 -15399)
(0 0 -8867.52)
(0 0 -8959.8)
(0 0 -8368.35)
(0 0 -7312.04)
(0 0 -10568.7)
(0 0 -11428.3)
(0 0 -8429.28)
(0 0 -8609.53)
(0 0 -5061.78)
(0 0 1014.19)
(0 0 4595)
(0 0 7258.18)
(0 0 11031.1)
(0 0 12297.4)
(0 0 9079)
(0 0 7662.19)
(0 0 8012.62)
(0 0 6091.84)
(0 0 5380.86)
(0 0 3611.52)
(0 0 3403.83)
(0 0 2629.42)
(0 0 2701.59)
(0 0 2129.46)
(0 0 2110.54)
(0 0 1569.02)
(0 0 1711.89)
(0 0 1295.62)
(0 0 1579.08)
(0 0 1340.8)
(0 0 1583)
(0 0 1396.45)
(0 0 1850.56)
(0 0 1347.4)
(0 0 1432.71)
(0 0 1056.01)
(0 0 1118.02)
(0 0 807.173)
(0 0 742.287)
(0 0 419.619)
(0 0 552.1)
(0 0 536.538)
(0 0 749.895)
(0 0 955.829)
(0 0 842.825)
(0 0 907.942)
(0 0 552.101)
(0 0 437.384)
(0 0 -0.0951729)
(0 0 -36.9985)
(0 0 -77.2433)
(0 0 -749.789)
(0 0 -870.847)
(0 0 -1133.27)
(0 0 -574.164)
(0 0 -664.563)
(0 0 33.5107)
(0 0 57.3436)
(0 0 175.089)
(0 0 150.667)
(0 0 -57.4108)
(0 0 -69.9489)
(0 0 158.214)
(0 0 7.27134)
(0 0 281.708)
(0 0 46.5471)
(0 0 22.0446)
(0 0 1215.23)
(0 0 2066.75)
(0 0 2286.74)
(0 0 1622.61)
(0 0 198.199)
(0 0 -821.113)
(0 0 -1215.47)
(0 0 -3383.33)
(0 0 -3939.26)
(0 0 -6873.39)
(0 0 -9982.32)
(0 0 -7376.23)
(0 0 -15181.2)
(0 0 -13620.7)
(0 0 -15963.9)
(0 0 -14486.3)
(0 0 -13074.1)
(0 0 11407.5)
(0 0 10778.6)
(0 0 -3916.99)
(0 0 -6051.63)
(0 0 6478.43)
(0 0 -5906.59)
(0 0 -2809.7)
(0 0 -8074.98)
(0 0 -3625.49)
(0 0 -12963.1)
(0 0 -18528.8)
(0 0 -14077.8)
(0 0 -16769.4)
(0 0 -19374)
(0 0 -13712.5)
(0 0 -9270.26)
(0 0 -9862)
(0 0 -9103.39)
(0 0 -9282.2)
(0 0 -3084.63)
(0 0 -10280.4)
(0 0 -13489)
(0 0 -10081.5)
(0 0 -9417.68)
(0 0 -9782.06)
(0 0 -5100.47)
(0 0 -1641.92)
(0 0 1650.37)
(0 0 5198.12)
(0 0 7699.98)
(0 0 9014.49)
(0 0 7708.34)
(0 0 8160.11)
(0 0 7904.52)
(0 0 7303.88)
(0 0 4680.92)
(0 0 3483.81)
(0 0 3035.92)
(0 0 2501.07)
(0 0 2564.68)
(0 0 1986.88)
(0 0 1933.55)
(0 0 1531.58)
(0 0 1549.08)
(0 0 1354.82)
(0 0 1436.3)
(0 0 1178.76)
(0 0 1384.73)
(0 0 1873.32)
(0 0 1552.72)
(0 0 1208.69)
(0 0 1334.29)
(0 0 795)
(0 0 1066.44)
(0 0 546.111)
(0 0 567.161)
(0 0 360.532)
(0 0 534.66)
(0 0 635.767)
(0 0 945.442)
(0 0 923.232)
(0 0 834.126)
(0 0 567.663)
(0 0 288.91)
(0 0 142.932)
(0 0 217.188)
(0 0 -218.864)
(0 0 -678.556)
(0 0 -1210.64)
(0 0 -673.71)
(0 0 -762.891)
(0 0 -224.213)
(0 0 -478.002)
(0 0 -255.588)
(0 0 41.6094)
(0 0 -18.8605)
(0 0 -179.106)
(0 0 92.461)
(0 0 -67.1665)
(0 0 220.364)
(0 0 232.339)
(0 0 120.653)
(0 0 83.0787)
(0 0 774.373)
(0 0 2039.49)
(0 0 1932.16)
(0 0 1557.89)
(0 0 138.841)
(0 0 -463.495)
(0 0 -1501.34)
(0 0 -2790.74)
(0 0 -3387.32)
(0 0 -5627.48)
(0 0 -8077.19)
(0 0 -3487.33)
(0 0 -14235.8)
(0 0 -6358.21)
(0 0 -5700.15)
(0 0 -1082.49)
(0 0 1707.48)
(0 0 13002.3)
(0 0 -4899.98)
(0 0 -13674.9)
(0 0 -11632.2)
(0 0 7449.58)
(0 0 -6136.35)
(0 0 3547.42)
(0 0 2811.34)
(0 0 1294.81)
(0 0 -20360.3)
(0 0 -18659.7)
(0 0 -16439.5)
(0 0 -16603.8)
(0 0 -12153.3)
(0 0 -8630.45)
(0 0 416.665)
(0 0 -7548.96)
(0 0 -6991.08)
(0 0 -9291.53)
(0 0 -3022.79)
(0 0 -8922.03)
(0 0 -13742.9)
(0 0 -11660.9)
(0 0 -10868.7)
(0 0 -10073.9)
(0 0 -7262.26)
(0 0 -5353.72)
(0 0 -2892.06)
(0 0 -709.047)
(0 0 2544.57)
(0 0 4717.12)
(0 0 6063.76)
(0 0 6994.07)
(0 0 7574.65)
(0 0 7184.96)
(0 0 6423.97)
(0 0 4516.47)
(0 0 2964.35)
(0 0 2756.79)
(0 0 2409.35)
(0 0 2397.31)
(0 0 1688.68)
(0 0 1959.87)
(0 0 1370.47)
(0 0 1662.56)
(0 0 1233.46)
(0 0 1223.06)
(0 0 1678.79)
(0 0 1493.11)
(0 0 1135.81)
(0 0 1412.89)
(0 0 1279.88)
(0 0 822.15)
(0 0 1057.82)
(0 0 785.719)
(0 0 360.284)
(0 0 409.569)
(0 0 328.791)
(0 0 553.694)
(0 0 902.972)
(0 0 935.912)
(0 0 765.653)
(0 0 596.344)
(0 0 391.653)
(0 0 291.265)
(0 0 259.83)
(0 0 -177.056)
(0 0 -1024.59)
(0 0 -878.645)
(0 0 -948.637)
(0 0 -295.799)
(0 0 -623.021)
(0 0 -140.058)
(0 0 -47.5104)
(0 0 -212.668)
(0 0 -337.504)
(0 0 6.957)
(0 0 -124.98)
(0 0 142.023)
(0 0 24.7016)
(0 0 507.105)
(0 0 236.185)
(0 0 -48.3363)
(0 0 640.193)
(0 0 1424.11)
(0 0 2016.19)
(0 0 1398.97)
(0 0 610.39)
(0 0 -315.03)
(0 0 -494.118)
(0 0 -2989.18)
(0 0 -2777.8)
(0 0 -4057.58)
(0 0 -6155.81)
(0 0 -1489.47)
(0 0 -15148.8)
(0 0 -3252.92)
(0 0 2787.39)
(0 0 -7749.16)
(0 0 20993.7)
(0 0 12507.1)
(0 0 -13406.2)
(0 0 -20570.4)
(0 0 -14948.1)
(0 0 8735.47)
(0 0 -11600.7)
(0 0 10806.7)
(0 0 20107.7)
(0 0 -3383.61)
(0 0 -13940.1)
(0 0 -18068.2)
(0 0 -19273.9)
(0 0 -13044.4)
(0 0 -3806.03)
(0 0 -9432.66)
(0 0 -2243.05)
(0 0 -8981.2)
(0 0 -8139.27)
(0 0 -9087.14)
(0 0 -5389.81)
(0 0 -5433.75)
(0 0 -8187.36)
(0 0 -12381.4)
(0 0 -10537.6)
(0 0 -9577.2)
(0 0 -9107.45)
(0 0 -7466.22)
(0 0 -5988.78)
(0 0 -3898.82)
(0 0 -1757.19)
(0 0 1800.3)
(0 0 3309.28)
(0 0 4397.91)
(0 0 5981.23)
(0 0 6041.95)
(0 0 6101.74)
(0 0 5294.85)
(0 0 3567.72)
(0 0 2547.43)
(0 0 2641.58)
(0 0 2400.89)
(0 0 1732.12)
(0 0 1956.86)
(0 0 1509.67)
(0 0 1651.84)
(0 0 1417.58)
(0 0 1542.9)
(0 0 1244.17)
(0 0 1090.52)
(0 0 1323.34)
(0 0 1070.21)
(0 0 976.037)
(0 0 1113.66)
(0 0 808.821)
(0 0 620.023)
(0 0 516.01)
(0 0 167.329)
(0 0 271.007)
(0 0 299.161)
(0 0 895.984)
(0 0 938.809)
(0 0 771.12)
(0 0 589.769)
(0 0 400.123)
(0 0 428.156)
(0 0 365.391)
(0 0 -490.876)
(0 0 -762.521)
(0 0 -767.778)
(0 0 -1170.81)
(0 0 -640.998)
(0 0 -343.493)
(0 0 -560.724)
(0 0 -229.23)
(0 0 -485.862)
(0 0 -199.63)
(0 0 -246.523)
(0 0 47.4754)
(0 0 -74.165)
(0 0 291.097)
(0 0 443.157)
(0 0 250.682)
(0 0 -243.494)
(0 0 489.951)
(0 0 1267.02)
(0 0 1508.62)
(0 0 1562.37)
(0 0 779.339)
(0 0 270.143)
(0 0 -122.997)
(0 0 -2331.06)
(0 0 -2728.01)
(0 0 -2621.28)
(0 0 -5026.41)
(0 0 -800.014)
(0 0 -14514.1)
(0 0 -3371.77)
(0 0 9147.22)
(0 0 6352.15)
(0 0 8005.59)
(0 0 -7446.03)
(0 0 -21978.7)
(0 0 -21400.7)
(0 0 -15496.1)
(0 0 5435.95)
(0 0 -10564.4)
(0 0 965.735)
(0 0 9895.14)
(0 0 -4940.27)
(0 0 -16457.4)
(0 0 -19090.2)
(0 0 -16230.2)
(0 0 -6462.19)
(0 0 -1350.07)
(0 0 -9694.26)
(0 0 -3426.47)
(0 0 -8298.94)
(0 0 -11348.4)
(0 0 -11925.6)
(0 0 -3427.79)
(0 0 -4617.18)
(0 0 1573.68)
(0 0 -6458.83)
(0 0 -10826.7)
(0 0 -7919.52)
(0 0 -7550.41)
(0 0 -7984.51)
(0 0 -6397.39)
(0 0 -5399.98)
(0 0 -3752.8)
(0 0 -1338.87)
(0 0 1440.06)
(0 0 2142.72)
(0 0 2678.15)
(0 0 4012.43)
(0 0 4498.27)
(0 0 4743.31)
(0 0 3898.79)
(0 0 2659.9)
(0 0 2406.13)
(0 0 1919.98)
(0 0 2116.47)
(0 0 1788.11)
(0 0 1871.03)
(0 0 1462.85)
(0 0 1606.02)
(0 0 1431.74)
(0 0 1498.97)
(0 0 1322.43)
(0 0 1129.02)
(0 0 1301.79)
(0 0 1264.33)
(0 0 950.015)
(0 0 1078.71)
(0 0 915.889)
(0 0 342.537)
(0 0 181.26)
(0 0 -66.5316)
(0 0 172.57)
(0 0 745.631)
(0 0 1014.8)
(0 0 766.811)
(0 0 587.899)
(0 0 475.925)
(0 0 578.196)
(0 0 143.141)
(0 0 -494.746)
(0 0 -1187.18)
(0 0 -1154.17)
(0 0 -1027.66)
(0 0 -265.795)
(0 0 -725.529)
(0 0 -394.769)
(0 0 -506.378)
(0 0 -371.607)
(0 0 -467.665)
(0 0 -136.12)
(0 0 -181.127)
(0 0 220.265)
(0 0 -3.6841)
(0 0 535.646)
(0 0 238.046)
(0 0 -463.436)
(0 0 140.944)
(0 0 1293.9)
(0 0 1703.83)
(0 0 1169.12)
(0 0 799.187)
(0 0 471.866)
(0 0 696.23)
(0 0 -2044.98)
(0 0 -2502.37)
(0 0 -1646.39)
(0 0 -3905.58)
(0 0 -340.853)
(0 0 -12151.7)
(0 0 -1653.74)
(0 0 160.045)
(0 0 19950.5)
(0 0 -6428.07)
(0 0 -19938.4)
(0 0 -21627.8)
(0 0 -15066.9)
(0 0 -21508.9)
(0 0 470.398)
(0 0 -7415.25)
(0 0 -4216.74)
(0 0 -9414.07)
(0 0 -10872.4)
(0 0 -15363.9)
(0 0 -17312.2)
(0 0 -11899.9)
(0 0 -6056.82)
(0 0 -114.154)
(0 0 -8925.41)
(0 0 -415.968)
(0 0 -8878.1)
(0 0 -9987.86)
(0 0 -8960.86)
(0 0 -1782.5)
(0 0 -685.034)
(0 0 11924.7)
(0 0 9449.7)
(0 0 -4096.61)
(0 0 -4195.65)
(0 0 -6498.73)
(0 0 -8236.23)
(0 0 -6483.88)
(0 0 -5032.62)
(0 0 -5370.07)
(0 0 -3493.75)
(0 0 -1057.35)
(0 0 501.881)
(0 0 1187.75)
(0 0 1189.64)
(0 0 2727.05)
(0 0 3037.91)
(0 0 3588.02)
(0 0 2471.45)
(0 0 1877.53)
(0 0 2051.69)
(0 0 1917.52)
(0 0 2001.66)
(0 0 1972.83)
(0 0 1573.06)
(0 0 1404.22)
(0 0 1584.03)
(0 0 1310.1)
(0 0 1150.94)
(0 0 1251.03)
(0 0 1011.06)
(0 0 1168.67)
(0 0 1072.4)
(0 0 871.892)
(0 0 902.023)
(0 0 557.288)
(0 0 -120.558)
(0 0 -78.0874)
(0 0 -368.249)
(0 0 768.534)
(0 0 940.07)
(0 0 879.084)
(0 0 578.196)
(0 0 640.184)
(0 0 486.365)
(0 0 101.889)
(0 0 -916.37)
(0 0 -1289.91)
(0 0 -733.247)
(0 0 -501.324)
(0 0 -757.953)
(0 0 -471.709)
(0 0 -654.097)
(0 0 -398.747)
(0 0 -585.936)
(0 0 -373.375)
(0 0 -427.113)
(0 0 61.7848)
(0 0 262.717)
(0 0 55.227)
(0 0 376.036)
(0 0 373.127)
(0 0 -544.972)
(0 0 -321.914)
(0 0 782.192)
(0 0 1112.14)
(0 0 1333.97)
(0 0 1144.39)
(0 0 814.984)
(0 0 1052.87)
(0 0 -1002.43)
(0 0 -2047.82)
(0 0 -1218.64)
(0 0 -2270.47)
(0 0 -317.672)
(0 0 -7161.83)
(0 0 7944.39)
(0 0 7148.41)
(0 0 2579.3)
(0 0 -7986.38)
(0 0 -22500.8)
(0 0 -29224)
(0 0 -12424.6)
(0 0 -9824.6)
(0 0 -6254.08)
(0 0 -5869.55)
(0 0 -8728.84)
(0 0 -18212.1)
(0 0 -15446.7)
(0 0 -14099.3)
(0 0 -14876.2)
(0 0 -11529.7)
(0 0 -7550.95)
(0 0 -531.156)
(0 0 -4534.77)
(0 0 855.527)
(0 0 -10711.2)
(0 0 -9101.52)
(0 0 -4429.6)
(0 0 1869.5)
(0 0 6009.27)
(0 0 16239.2)
(0 0 12082.9)
(0 0 -2101.98)
(0 0 -2691.75)
(0 0 -8782.35)
(0 0 -10675.5)
(0 0 -5246.57)
(0 0 -5155.18)
(0 0 -4756.06)
(0 0 -4607.86)
(0 0 -2283.26)
(0 0 -1295.36)
(0 0 -675.168)
(0 0 -40.7297)
(0 0 158.737)
(0 0 1056.9)
(0 0 2034.77)
(0 0 2288.35)
(0 0 1918.84)
(0 0 1781.39)
(0 0 1937.04)
(0 0 1710.54)
(0 0 1772.72)
(0 0 1192.68)
(0 0 1398.3)
(0 0 1434.88)
(0 0 1545.93)
(0 0 1296.37)
(0 0 1051.71)
(0 0 1095.84)
(0 0 895.863)
(0 0 858.831)
(0 0 997.782)
(0 0 704.888)
(0 0 528.821)
(0 0 -142.999)
(0 0 -322.659)
(0 0 -541.774)
(0 0 379.775)
(0 0 1052.84)
(0 0 819.2)
(0 0 731.329)
(0 0 507.446)
(0 0 557.37)
(0 0 -256.096)
(0 0 -723.843)
(0 0 -864.82)
(0 0 -485.976)
(0 0 -694.676)
(0 0 -426.243)
(0 0 -800.878)
(0 0 -493.919)
(0 0 -595.831)
(0 0 -486.607)
(0 0 -648.601)
(0 0 -373.224)
(0 0 -387.47)
(0 0 37.5551)
(0 0 377.226)
(0 0 611.378)
(0 0 463.632)
(0 0 -703.606)
(0 0 -458.109)
(0 0 367.934)
(0 0 1188.06)
(0 0 1209.18)
(0 0 1171.55)
(0 0 1587.05)
(0 0 1851.22)
(0 0 -254.468)
(0 0 -965.34)
(0 0 -1429.91)
(0 0 -970.606)
(0 0 446.872)
(0 0 -2437.42)
(0 0 14288.3)
(0 0 12624.1)
(0 0 -5120.25)
(0 0 -7918.21)
(0 0 -23127.6)
(0 0 -20257.6)
(0 0 -11786.9)
(0 0 -18901.4)
(0 0 -16700.4)
(0 0 -9921.4)
(0 0 -16191.8)
(0 0 -20194.3)
(0 0 -18623.7)
(0 0 -15601)
(0 0 -12833.1)
(0 0 -9809.4)
(0 0 -7846.86)
(0 0 68.2928)
(0 0 1837.76)
(0 0 2931.62)
(0 0 -7988.5)
(0 0 -6756.33)
(0 0 -992.606)
(0 0 -996.186)
(0 0 10.6933)
(0 0 8976.8)
(0 0 10108)
(0 0 3412.62)
(0 0 -1461.87)
(0 0 -3058.89)
(0 0 -6657.49)
(0 0 -5022.86)
(0 0 -4196.94)
(0 0 -4648.78)
(0 0 -4556.73)
(0 0 -3180.05)
(0 0 -2634.45)
(0 0 -2282.36)
(0 0 -1794.76)
(0 0 -786.42)
(0 0 -624.741)
(0 0 1194.02)
(0 0 1474)
(0 0 1535.52)
(0 0 1669.36)
(0 0 1712.46)
(0 0 1767.26)
(0 0 1499.7)
(0 0 1412.74)
(0 0 1184.07)
(0 0 1524.62)
(0 0 1480.34)
(0 0 1138.49)
(0 0 1171.38)
(0 0 939.79)
(0 0 1035.38)
(0 0 894.06)
(0 0 854.495)
(0 0 942.58)
(0 0 383.17)
(0 0 14.8761)
(0 0 -836.133)
(0 0 -442.234)
(0 0 -224.377)
(0 0 826.443)
(0 0 971.764)
(0 0 641.903)
(0 0 686.607)
(0 0 248.715)
(0 0 -295.357)
(0 0 -915.599)
(0 0 -644.915)
(0 0 -638.426)
(0 0 -351.703)
(0 0 -804.129)
(0 0 -643.332)
(0 0 -748.059)
(0 0 -493.089)
(0 0 -677.972)
(0 0 -544.273)
(0 0 -658.18)
(0 0 -172.363)
(0 0 197.919)
(0 0 220.606)
(0 0 581.181)
(0 0 543.108)
(0 0 -793.408)
(0 0 -572.787)
(0 0 -166.723)
(0 0 734.819)
(0 0 1526.66)
(0 0 1682.05)
(0 0 2097.45)
(0 0 2155.27)
(0 0 1284.25)
(0 0 -158.685)
(0 0 -1002.12)
(0 0 1228.95)
(0 0 1722.57)
(0 0 2294.06)
(0 0 11947.8)
(0 0 56.8389)
(0 0 -5346.95)
(0 0 491.21)
(0 0 -18955.8)
(0 0 -16535.7)
(0 0 -12066.7)
(0 0 -19317.5)
(0 0 -22101.5)
(0 0 -19101.1)
(0 0 -20520)
(0 0 -21149.7)
(0 0 -18886.5)
(0 0 -16074.1)
(0 0 -12768.9)
(0 0 -10191.5)
(0 0 -7292.99)
(0 0 199.398)
(0 0 7608.37)
(0 0 9752.2)
(0 0 -7282.98)
(0 0 -4751.51)
(0 0 4053.1)
(0 0 -3236.54)
(0 0 -37.596)
(0 0 7578.97)
(0 0 3356.52)
(0 0 -2142.03)
(0 0 -5855.32)
(0 0 -753.58)
(0 0 -1377.35)
(0 0 -4583.89)
(0 0 -3226.18)
(0 0 -4106.57)
(0 0 -4148.98)
(0 0 -3476.14)
(0 0 -2845.33)
(0 0 -2958.68)
(0 0 -2149.52)
(0 0 -1907.61)
(0 0 -1010.58)
(0 0 304.549)
(0 0 485.921)
(0 0 1092.79)
(0 0 1293.75)
(0 0 1614.23)
(0 0 1584.55)
(0 0 1552.67)
(0 0 1251.55)
(0 0 1137.28)
(0 0 1408.7)
(0 0 1192.93)
(0 0 1236)
(0 0 1011.99)
(0 0 1038.69)
(0 0 895.535)
(0 0 1033.16)
(0 0 908.841)
(0 0 946.068)
(0 0 623.064)
(0 0 -178.358)
(0 0 -513.454)
(0 0 -987.513)
(0 0 -181.243)
(0 0 347.931)
(0 0 823.201)
(0 0 881.591)
(0 0 344.881)
(0 0 178.643)
(0 0 -653.688)
(0 0 -703.243)
(0 0 -782.13)
(0 0 -387.69)
(0 0 -656.132)
(0 0 -440.708)
(0 0 -965.648)
(0 0 -629.871)
(0 0 -659.833)
(0 0 -559.226)
(0 0 -782.8)
(0 0 -517.861)
(0 0 -594.864)
(0 0 -46.0593)
(0 0 285.586)
(0 0 449.244)
(0 0 585.465)
(0 0 -829.694)
(0 0 -854.136)
(0 0 -310.521)
(0 0 721.727)
(0 0 1395.79)
(0 0 2100.08)
(0 0 2748.51)
(0 0 2819.11)
(0 0 2446.98)
(0 0 1209.44)
(0 0 -847.57)
(0 0 2902.84)
(0 0 3893.06)
(0 0 6337.68)
(0 0 21954.9)
(0 0 -2020.47)
(0 0 6755.19)
(0 0 80.7133)
(0 0 -18023.3)
(0 0 -14489.9)
(0 0 -13956.5)
(0 0 -21373.1)
(0 0 -22193.9)
(0 0 -22713.6)
(0 0 -21490.5)
(0 0 -20134.6)
(0 0 -18590.6)
(0 0 -15142.4)
(0 0 -12141.7)
(0 0 -8890.85)
(0 0 -6269.83)
(0 0 -411.198)
(0 0 7394.81)
(0 0 12243.8)
(0 0 -2122.34)
(0 0 2934.15)
(0 0 9847.02)
(0 0 -5096.63)
(0 0 1187)
(0 0 8988.78)
(0 0 -3918.65)
(0 0 -5847.72)
(0 0 -6460.64)
(0 0 1880.12)
(0 0 3679.42)
(0 0 299.054)
(0 0 -1677.97)
(0 0 -3602.03)
(0 0 -2779.55)
(0 0 -2860.27)
(0 0 -2856.85)
(0 0 -2945)
(0 0 -2646.94)
(0 0 -1944.58)
(0 0 -1207.55)
(0 0 -684.265)
(0 0 -144.89)
(0 0 855.821)
(0 0 919.767)
(0 0 1352.35)
(0 0 1505.03)
(0 0 1497.73)
(0 0 1293.42)
(0 0 1312.62)
(0 0 1140.88)
(0 0 1192)
(0 0 1071.29)
(0 0 1089.9)
(0 0 884.767)
(0 0 970.308)
(0 0 873.916)
(0 0 1034.02)
(0 0 750.343)
(0 0 673.197)
(0 0 214.686)
(0 0 -953.628)
(0 0 -646.414)
(0 0 -585.518)
(0 0 287.218)
(0 0 419.149)
(0 0 786.199)
(0 0 519.548)
(0 0 -315.411)
(0 0 -539.77)
(0 0 -855.163)
(0 0 -566.162)
(0 0 -650.247)
(0 0 -705.244)
(0 0 -484.877)
(0 0 -922.797)
(0 0 -870.512)
(0 0 -535.176)
(0 0 -711.508)
(0 0 -596.342)
(0 0 -735.538)
(0 0 -535.876)
(0 0 -18.4183)
(0 0 271.384)
(0 0 405.863)
(0 0 596.004)
(0 0 -983.764)
(0 0 -1021.85)
(0 0 -428.819)
(0 0 369.054)
(0 0 1720.28)
(0 0 2822.08)
(0 0 3480.16)
(0 0 3216.38)
(0 0 4282.4)
(0 0 2577.89)
(0 0 -591.04)
(0 0 4284.53)
(0 0 4601.72)
(0 0 10430.5)
(0 0 24570.3)
(0 0 -10090.9)
(0 0 7681.23)
(0 0 4575.96)
(0 0 -12043.6)
(0 0 -12017.3)
(0 0 -16133)
(0 0 -20441.5)
(0 0 -22094.2)
(0 0 -21825.2)
(0 0 -20662.2)
(0 0 -17662.6)
(0 0 -16683.4)
(0 0 -13485.1)
(0 0 -9897.86)
(0 0 -7243.41)
(0 0 -4123.38)
(0 0 -1613.08)
(0 0 11365.2)
(0 0 12280.6)
(0 0 3996.64)
(0 0 10559.5)
(0 0 12082.5)
(0 0 -5486.93)
(0 0 6405.87)
(0 0 4139.72)
(0 0 -8712.66)
(0 0 -7110.73)
(0 0 -4596.26)
(0 0 1952.07)
(0 0 6061.49)
(0 0 2430.98)
(0 0 -2944.7)
(0 0 -3081.78)
(0 0 -1995.48)
(0 0 -2264.68)
(0 0 -2902.44)
(0 0 -3212.94)
(0 0 -2635.75)
(0 0 -1899.49)
(0 0 -1599.83)
(0 0 -740.535)
(0 0 -436.455)
(0 0 395.267)
(0 0 626.013)
(0 0 1075.77)
(0 0 1339.3)
(0 0 1444.39)
(0 0 1456.59)
(0 0 1126.01)
(0 0 1098.38)
(0 0 1045.21)
(0 0 1102.03)
(0 0 933.871)
(0 0 935.916)
(0 0 829.419)
(0 0 908.115)
(0 0 877.093)
(0 0 869.573)
(0 0 532.668)
(0 0 417.131)
(0 0 -553.832)
(0 0 -1040.76)
(0 0 -379.498)
(0 0 -139.581)
(0 0 450.268)
(0 0 301.887)
(0 0 429.6)
(0 0 -264.88)
(0 0 -764.763)
(0 0 -665.098)
(0 0 -630.16)
(0 0 -640.593)
(0 0 -350.702)
(0 0 -756.203)
(0 0 -646.405)
(0 0 -825.278)
(0 0 -645.924)
(0 0 -566.455)
(0 0 -757.196)
(0 0 -393.181)
(0 0 -245.657)
(0 0 67.8273)
(0 0 289.786)
(0 0 382.908)
(0 0 533.591)
(0 0 -978.024)
(0 0 -1266.87)
(0 0 -701.646)
(0 0 297.22)
(0 0 1883.25)
(0 0 3109.03)
(0 0 4394.56)
(0 0 3961.65)
(0 0 6825.89)
(0 0 3784.86)
(0 0 -391.471)
(0 0 6897.67)
(0 0 3668.71)
(0 0 14101.1)
(0 0 18112.2)
(0 0 -10487.9)
(0 0 -2520.51)
(0 0 -10.2706)
(0 0 -5946.76)
(0 0 -7487.27)
(0 0 -15026.4)
(0 0 -19689.3)
(0 0 -20454.9)
(0 0 -19238)
(0 0 -18467.9)
(0 0 -16104.6)
(0 0 -13715.1)
(0 0 -11320.7)
(0 0 -7748.6)
(0 0 -4893.9)
(0 0 -2272.03)
(0 0 815.062)
(0 0 11959.6)
(0 0 10767)
(0 0 6303.63)
(0 0 13456.1)
(0 0 11419.5)
(0 0 -5142.73)
(0 0 5986.97)
(0 0 -298.191)
(0 0 -11238.8)
(0 0 -6768.79)
(0 0 -569.995)
(0 0 487.631)
(0 0 1229.79)
(0 0 5791.79)
(0 0 -1526.83)
(0 0 -1011.77)
(0 0 -109.446)
(0 0 -2301.96)
(0 0 -3137.57)
(0 0 -3410.88)
(0 0 -2570.94)
(0 0 -2195.59)
(0 0 -1490.84)
(0 0 -1108.4)
(0 0 -322.299)
(0 0 60.2807)
(0 0 564.397)
(0 0 805.949)
(0 0 1286.04)
(0 0 1318.98)
(0 0 1437.24)
(0 0 1070.56)
(0 0 980.987)
(0 0 998.362)
(0 0 950.53)
(0 0 948.377)
(0 0 777.539)
(0 0 887.521)
(0 0 722.265)
(0 0 934.159)
(0 0 702.898)
(0 0 761.942)
(0 0 81.7034)
(0 0 -233.684)
(0 0 -497.548)
(0 0 -755.121)
(0 0 -123.591)
(0 0 97.9699)
(0 0 292.62)
(0 0 -195.063)
(0 0 -237.769)
(0 0 -538.422)
(0 0 -720.177)
(0 0 -264.028)
(0 0 -321.668)
(0 0 -572.51)
(0 0 -530.846)
(0 0 -796.045)
(0 0 -638.657)
(0 0 -480.395)
(0 0 -684.421)
(0 0 -518.28)
(0 0 -475.054)
(0 0 26.1791)
(0 0 138.882)
(0 0 248.965)
(0 0 256.575)
(0 0 569.532)
(0 0 -974.416)
(0 0 -1518.6)
(0 0 -973.492)
(0 0 150.91)
(0 0 1906.42)
(0 0 3781.84)
(0 0 5236.89)
(0 0 4664.59)
(0 0 9870.84)
(0 0 5587.15)
(0 0 305.761)
(0 0 7195.73)
(0 0 3359.62)
(0 0 15551.6)
(0 0 6819.55)
(0 0 -11056)
(0 0 -5502.1)
(0 0 -2955.02)
(0 0 -1028.1)
(0 0 -4718.67)
(0 0 -13969.2)
(0 0 -17971.2)
(0 0 -17096)
(0 0 -15654.2)
(0 0 -14384.5)
(0 0 -12887.4)
(0 0 -10942.3)
(0 0 -7833.83)
(0 0 -4972.39)
(0 0 -2930.94)
(0 0 214.874)
(0 0 3109.48)
(0 0 6421.97)
(0 0 2391.49)
(0 0 2737.18)
(0 0 5831.33)
(0 0 3302.68)