/*--------------------------------*- C++ -*----------------------------------*\
| =========                 |                                                 |
| \\      /  F ield         | foam-extend: Open Source CFD                    |
|  \\    /   O peration     | Version:     5.0                                |
|   \\  /    A nd           | Web:         http://www.foam-extend.org         |
|    \\/     M anipulation  |                                                 |
\*---------------------------------------------------------------------------*/
FoamFile
{
    version     2.0;
    format      ascii;
    class       volScalarField;
    location    "0.095";
    object      p;
}
// * * * * * * * * * * * * * * * * * * * * * * * * * * * * * * * * * * * * * //

dimensions      [1 -1 -2 0 0 0 0];

internalField   nonuniform List<scalar> 
4000
(
-4.82408e+06
-4.75424e+06
-4.71649e+06
-4.71531e+06
-4.7293e+06
-4.74621e+06
-4.78242e+06
-4.83613e+06
-4.80208e+06
-4.6491e+06
-4.4703e+06
-4.42222e+06
-4.42482e+06
-4.31276e+06
-4.18834e+06
-3.81192e+06
-3.2206e+06
-2.7221e+06
-2.4413e+06
-2.22634e+06
-2.02406e+06
-1.71841e+06
-1.4153e+06
-1.28174e+06
-1.26242e+06
-1.09908e+06
-792862
-1.10204e+06
-1.10666e+06
-798294
-605243
-634146
-649217
-577607
-537446
-559158
-590424
-566157
-472512
-393222
-325780
-284607
-235097
-168323
-117437
-79873.7
-51134.9
-26390
-4075.31
14887.2
26726.7
34957.3
43652.3
50088.6
54989.4
58144.9
59996.7
59338.4
57374.6
55252.2
51807.5
48275.2
45313.7
43256.8
40974.7
38469.1
35818.1
32131.5
28878.8
26564.3
24687.9
22705.9
20982.5
20041.9
19206.4
18003
16088.2
13500.9
10799.3
8244.46
5946.62
4510.64
4757.84
5646.33
5166.14
3502.71
2138.15
1620.41
2074.46
2643.07
2019.49
1315.92
1042.3
1176.53
1695.47
2090.9
2161.43
1482.28
230.236
-12.4806
-4.82242e+06
-4.75199e+06
-4.71668e+06
-4.71625e+06
-4.72949e+06
-4.74291e+06
-4.7792e+06
-4.83545e+06
-4.80823e+06
-4.67212e+06
-4.46172e+06
-4.41282e+06
-4.42313e+06
-4.30134e+06
-4.18069e+06
-3.8062e+06
-3.22621e+06
-2.73318e+06
-2.44757e+06
-2.21809e+06
-2.02683e+06
-1.73937e+06
-1.45356e+06
-1.29688e+06
-1.26827e+06
-1.11859e+06
-814590
-1.10284e+06
-1.07876e+06
-717253
-562662
-610084
-636537
-584363
-526295
-544820
-581939
-549688
-459652
-372878
-311312
-274519
-227605
-165183
-114119
-77171.6
-49590
-25570
-3382.76
15418.1
26796.2
34990
43723.8
50092.5
54785.7
57645.8
59777.2
59075
57047.2
55066.2
51517.8
48152.1
45118.5
43134.6
40854.4
38358.8
35726.2
32021.1
28815.7
26526.2
24653.3
22656.3
20916.7
19971.3
19126.1
17932.5
16049.3
13477.1
10773.4
8239.77
5935.8
4438.11
4681.68
5577.12
5129.03
3488.2
2156.35
1707.05
2145.62
2710.88
2048.5
1376.02
1103.05
1220.58
1723.44
2113.16
2185.44
1537.36
256.397
-38.6575
-4.8219e+06
-4.74866e+06
-4.71636e+06
-4.71772e+06
-4.73053e+06
-4.74169e+06
-4.78033e+06
-4.83878e+06
-4.81028e+06
-4.68755e+06
-4.46916e+06
-4.40846e+06
-4.39529e+06
-4.26019e+06
-4.15346e+06
-3.81486e+06
-3.25372e+06
-2.7493e+06
-2.43188e+06
-2.20647e+06
-2.04183e+06
-1.8162e+06
-1.49912e+06
-1.33497e+06
-1.3135e+06
-1.15963e+06
-894372
-1.18108e+06
-1.18138e+06
-751162
-585460
-626029
-649345
-581065
-509743
-545553
-585091
-543090
-454007
-373667
-315792
-277728
-228046
-164122
-112397
-75507.4
-48704.7
-25175.2
-2756.76
16136
27270.8
35326.3
43913.8
50278.6
54822.9
57351.7
59745.4
58928
56792.7
54720.9
51409.6
48143.7
44944.7
43051
40779
38413.3
35608.8
31876.4
28805.4
26410.1
24549.8
22623.7
20865.9
19921.6
19091.2
17874.6
16016.3
13458.5
10734.9
8203.82
5884.68
4361.68
4607.07
5536.37
5148.4
3545.76
2190.28
1758.7
2181.43
2698.85
2124.4
1445.32
1119.85
1232.43
1733.23
2117.19
2203.22
1588.98
251.353
-88.4915
-4.82246e+06
-4.74522e+06
-4.71586e+06
-4.71902e+06
-4.73141e+06
-4.7409e+06
-4.78038e+06
-4.83318e+06
-4.80149e+06
-4.6914e+06
-4.50068e+06
-4.41749e+06
-4.3604e+06
-4.19455e+06
-4.07359e+06
-3.79901e+06
-3.28949e+06
-2.76861e+06
-2.42478e+06
-2.18523e+06
-2.04344e+06
-1.87143e+06
-1.53879e+06
-1.38885e+06
-1.36154e+06
-1.19681e+06
-943752
-1.1714e+06
-1.23999e+06
-812296
-614369
-643902
-651947
-573698
-512819
-581810
-616259
-552187
-471752
-392530
-335013
-290336
-234019
-165319
-114002
-75856.9
-48159
-25749.4
-2367.65
16806.4
27907.5
35839.4
44171.7
50509.4
54954.7
57499.7
59735.5
58873.5
56667
54492.1
51320.8
48105
44991.5
42989.4
40751.5
38457.3
35546.5
31871.1
28707.3
26320.4
24543.6
22589
20780.5
19856.7
19035.3
17834.8
15964.1
13459.5
10691.4
8104.81
5813.89
4320.31
4543.3
5519.03
5254.07
3574.78
2220
1766.39
2190.9
2701.67
2103.77
1462.8
1115.27
1244.29
1731
2103.09
2217.87
1645.68
256.806
-135.233
-4.82454e+06
-4.74125e+06
-4.71499e+06
-4.71995e+06
-4.73212e+06
-4.73962e+06
-4.77837e+06
-4.82536e+06
-4.78788e+06
-4.67903e+06
-4.52376e+06
-4.42168e+06
-4.33852e+06
-4.14454e+06
-3.99472e+06
-3.77134e+06
-3.31003e+06
-2.77908e+06
-2.42864e+06
-2.17586e+06
-2.03094e+06
-1.84895e+06
-1.54417e+06
-1.43594e+06
-1.40118e+06
-1.22544e+06
-964801
-1.1078e+06
-1.1845e+06
-825758
-634443
-662733
-661831
-570225
-519499
-616418
-644447
-564030
-484346
-407370
-349700
-302877
-241631
-167919
-117248
-77672
-49648.6
-25702.3
-1800.6
17336.2
28445.7
36344.3
44527
50765.3
55236.7
57780.2
59943.7
58969.1
56697.8
54405.8
51264.9
48070.5
45092.6
43014.7
40905.8
38426.6
35467.3
31872.4
28607.7
26358.4
24624.1
22572.5
20713.4
19782
18990.9
17746.9
15966.2
13420.1
10639.2
8001.13
5716.17
4294.08
4508.4
5615.67
5330.42
3600.55
2217
1764.33
2166.91
2686.96
2035.31
1411.39
1152.09
1236.09
1719.3
2084.46
2229.26
1691.03
242.058
-223.124
-4.82845e+06
-4.73734e+06
-4.71359e+06
-4.72092e+06
-4.733e+06
-4.7381e+06
-4.77475e+06
-4.81969e+06
-4.77949e+06
-4.66839e+06
-4.53687e+06
-4.4212e+06
-4.3234e+06
-4.09993e+06
-3.92456e+06
-3.738e+06
-3.30475e+06
-2.79935e+06
-2.44531e+06
-2.17822e+06
-2.02131e+06
-1.79614e+06
-1.55303e+06
-1.479e+06
-1.44201e+06
-1.24506e+06
-979803
-1.07519e+06
-1.09439e+06
-805180
-648962
-684879
-680108
-585487
-531841
-619362
-642827
-565628
-486556
-410621
-354501
-316315
-257548
-174850
-119879
-80381.5
-51445.1
-25675.3
-2090.27
17364.5
28506.3
36865.3
44910.4
51119.9
55605
58158.8
60345.6
59266.9
56833.3
54429
51243.1
48049
45147.4
43112.1
41112.5
38578.9
35383.1
31827
28703.6
26528.4
24658
22511.7
20601.5
19660.3
18902.9
17705.1
15973.6
13444.1
10573.7
7891.57
5628.03
4254.38
4525.38
5783.68
5531.17
3518.32
2173.94
1723.6
2122.64
2673.09
1916.67
1348.42
1156.86
1226.69
1671
2050.19
2219.26
1730.04
202.292
-323.907
-4.83375e+06
-4.73447e+06
-4.71244e+06
-4.72172e+06
-4.73372e+06
-4.73661e+06
-4.77075e+06
-4.81712e+06
-4.77106e+06
-4.66282e+06
-4.54642e+06
-4.42399e+06
-4.31635e+06
-4.05725e+06
-3.84731e+06
-3.70065e+06
-3.30375e+06
-2.8506e+06
-2.47605e+06
-2.17901e+06
-2.03161e+06
-1.76747e+06
-1.57882e+06
-1.51798e+06
-1.47984e+06
-1.24448e+06
-968421
-1.05382e+06
-1.05305e+06
-804946
-661948
-710481
-703274
-597895
-545185
-611898
-625787
-557871
-481999
-410668
-355458
-323688
-272226
-188918
-125474
-83195.8
-53149.4
-27979.9
-3196.71
16830
27900.7
37119.6
45360.5
51563.5
56144.1
58899.9
60731.7
59616.4
57068.1
54516.9
51265.8
48056.1
45154
43199.2
41339.5
38730.3
35436.8
31954.9
28920.7
26679.1
24592.8
22411.5
20538.7
19537.2
18772.7
17665.2
16008
13460.4
10518
7767.9
5502.14
4251.62
4595.17
6107.28
5638.84
3393.53
2102.2
1608.36
2054.75
2544.63
1836.97
1334.72
1151.85
1203.27
1605.33
1993.22
2190.52
1771.26
173.857
-428.702
-4.84e+06
-4.73259e+06
-4.71149e+06
-4.7225e+06
-4.73465e+06
-4.73498e+06
-4.76664e+06
-4.81469e+06
-4.76045e+06
-4.65746e+06
-4.55185e+06
-4.42483e+06
-4.31276e+06
-4.01827e+06
-3.76555e+06
-3.64296e+06
-3.30308e+06
-2.90416e+06
-2.49994e+06
-2.17257e+06
-2.04692e+06
-1.7747e+06
-1.59267e+06
-1.53641e+06
-1.50774e+06
-1.26241e+06
-1.01174e+06
-1.02302e+06
-1.02027e+06
-792602
-675331
-738866
-735755
-611786
-555873
-605627
-610204
-547638
-473057
-409090
-352846
-326212
-275214
-198696
-133403
-87111.9
-57541.6
-33013.4
-5782.15
15498
26904.8
37459.1
46121.1
52323.4
56940.4
59814.3
61262.4
60071.5
57541.9
54541
51274.9
48059.8
45138
43341.2
41454.9
38886.4
35632.8
32128.2
29202.6
26708.1
24592.4
22411.7
20387.6
19387.8
18665
17626.8
16051.5
13514.4
10453.1
7634.78
5417.05
4265.94
4769.79
6418.3
5729.93
3185.83
1864.7
1470.25
1895.49
2343.82
1752.36
1229.14
1066.06
1154.01
1524.84
1938.65
2159.85
1815.79
197.711
-519.204
-4.84676e+06
-4.73146e+06
-4.71106e+06
-4.7236e+06
-4.73537e+06
-4.73329e+06
-4.76252e+06
-4.81153e+06
-4.74692e+06
-4.64875e+06
-4.55371e+06
-4.4203e+06
-4.30932e+06
-3.9819e+06
-3.67907e+06
-3.57274e+06
-3.29877e+06
-2.94343e+06
-2.52445e+06
-2.13888e+06
-2.04848e+06
-1.7937e+06
-1.59258e+06
-1.56189e+06
-1.52784e+06
-1.28193e+06
-1.08773e+06
-1.00901e+06
-1.0364e+06
-796470
-694264
-759061
-757634
-617493
-569268
-609127
-605830
-548295
-463212
-408717
-348915
-316780
-274150
-202461
-134813
-89155.6
-63608.4
-43799.9
-11165.5
13854.4
26743.2
37391.9
46716.9
53238
57910
60851
62027.4
60731.8
57990.3
54720
51377.6
48071.1
45195.4
43347
41487.3
39049.3
35922.6
32352.6
29373.1
26824.4
24599
22405.4
20302.4
19240.6
18524.1
17559.3
16137.5
13603.3
10383.6
7491.9
5339.48
4325.6
4898.33
6683.22
5689.22
2955.84
1508.93
1259.9
1689.56
2080.38
1651.07
1096.88
958.116
1091.9
1483.91
1881.31
2143.72
1932.79
267.281
-589.156
-4.85384e+06
-4.73151e+06
-4.71127e+06
-4.72471e+06
-4.73617e+06
-4.73112e+06
-4.75839e+06
-4.80725e+06
-4.73143e+06
-4.63589e+06
-4.55195e+06
-4.41083e+06
-4.30695e+06
-3.95133e+06
-3.5877e+06
-3.50151e+06
-3.29054e+06
-2.94541e+06
-2.5547e+06
-2.14927e+06
-2.04338e+06
-1.79641e+06
-1.59781e+06
-1.56723e+06
-1.52141e+06
-1.33958e+06
-1.17559e+06
-1.0501e+06
-1.06911e+06
-823169
-712736
-772640
-769982
-602921
-574056
-610573
-603411
-555406
-455458
-410049
-353195
-305360
-267223
-201350
-134758
-88324.3
-66944.4
-55133.2
-19004.1
11509.5
25577.2
36761.4
47712.9
54160.8
59005.7
61971.1
62973.8
61597
58544.9
54988.4
51559.1
48178
45218.6
43332.8
41512.6
39295.2
36212.9
32577.9
29578.1
27001.2
24649.4
22401.9
20274.4
19081.6
18337.4
17490.6
16236.6
13753.4
10320.4
7355.99
5230.71
4453.08
5087.15
6826.69
5615.84
2578.62
1133.64
1015.43
1428.98
1798.58
1490.1
961.937
812.634
1051.81
1452.09
1863.04
2080.82
2030.03
406.846
-608.763
-4.86096e+06
-4.73248e+06
-4.71216e+06
-4.72566e+06
-4.73654e+06
-4.7285e+06
-4.75342e+06
-4.80221e+06
-4.71361e+06
-4.61897e+06
-4.54672e+06
-4.39687e+06
-4.30431e+06
-3.9228e+06
-3.52698e+06
-3.44612e+06
-3.29297e+06
-2.94102e+06
-2.55444e+06
-2.17249e+06
-2.05792e+06
-1.81462e+06
-1.61366e+06
-1.56051e+06
-1.49877e+06
-1.40364e+06
-1.22811e+06
-1.14575e+06
-1.10237e+06
-869050
-733522
-783380
-767114
-594309
-580608
-608652
-598578
-558423
-445303
-415665
-361684
-300634
-265023
-199070
-132488
-87549.5
-68186.7
-58724.8
-25180.3
9280.93
23540.1
36236.3
47421.2
54789.2
60475.7
63130
64039.5
62594.5
59258.5
55327.9
51822.3
48336.8
45285.8
43356.7
41556.4
39624.7
36456.7
32668
29787
27225.5
24730.5
22401.8
20251.5
18909.2
18189.3
17393.6
16378.9
13947
10278.9
7220.93
5229.57
4571.25
5291.33
6889.47
5414.53
2152.29
707.854
662.702
1155.72
1478.13
1307.84
727.392
653.035
1039.68
1490.11
1802.04
2039.21
2127.73
546.533
-581.929
-4.86769e+06
-4.7344e+06
-4.71364e+06
-4.72633e+06
-4.73646e+06
-4.72496e+06
-4.74793e+06
-4.79529e+06
-4.69532e+06
-4.59913e+06
-4.53856e+06
-4.37905e+06
-4.29791e+06
-3.89645e+06
-3.53748e+06
-3.41293e+06
-3.24995e+06
-2.98291e+06
-2.64761e+06
-2.22823e+06
-2.10868e+06
-1.83195e+06
-1.61298e+06
-1.55323e+06
-1.48395e+06
-1.457e+06
-1.2722e+06
-1.21227e+06
-1.12976e+06
-924607
-774416
-801999
-769520
-587391
-590880
-613370
-596247
-557502
-442769
-421937
-373866
-299293
-265251
-202888
-132800
-85757.3
-67456.3
-59095.9
-27418.6
8068.54
22288.4
34846.9
45716
55046.6
61662.4
64035.2
65093.8
63679.1
60105
55658.3
52199.5
48526.8
45414.6
43396
41726.4
39833.3
36518.3
32849.4
30030.9
27388.7
24918.5
22519.7
20198.4
18755
17960.6
17301.5
16546.8
14239
10276.8
7144.02
5233.39
4712.27
5479.42
6887.17
5187.28
1613.49
194.15
320.951
763.264
1156.76
1097.25
467.776
491.236
1045.32
1508.84
1725.79
1990.48
2251.4
716.837
-512.26
-4.87377e+06
-4.73714e+06
-4.71561e+06
-4.72669e+06
-4.73596e+06
-4.72072e+06
-4.74171e+06
-4.78712e+06
-4.67808e+06
-4.57771e+06
-4.52739e+06
-4.35921e+06
-4.28783e+06
-3.87401e+06
-3.56098e+06
-3.39962e+06
-3.19625e+06
-2.97995e+06
-2.71488e+06
-2.30056e+06
-2.14674e+06
-1.83312e+06
-1.60177e+06
-1.54565e+06
-1.5e+06
-1.49789e+06
-1.32197e+06
-1.24387e+06
-1.1593e+06
-979320
-833739
-819378
-795475
-584569
-600256
-632744
-593924
-551837
-457289
-423075
-381067
-292717
-265346
-206113
-134763
-86323.8
-66314.6
-58018
-27371.2
7010.71
21275.1
33519.5
44534.7
53877.5
61808
64793.4
65972.5
64856.9
60712.4
56193.7
52684.8
48840.3
45551.1
43472.4
41978
39917.8
36642.9
33083.9
30159.9
27636.2
25178.6
22609.3
20206.5
18640.9
17708.1
17141.1
16773.6
14544.5
10358.8
7134.85
5241.71
4879.27
5685.26
6897.1
4814.76
920.112
-405.279
-79.8129
370.116
803.095
868.54
213.54
367.622
978.794
1479.29
1666.4
1929.65
2344.34
934.873
-417.275
-4.87895e+06
-4.74041e+06
-4.7176e+06
-4.72687e+06
-4.73503e+06
-4.71609e+06
-4.73518e+06
-4.77885e+06
-4.66106e+06
-4.55656e+06
-4.51466e+06
-4.33721e+06
-4.27208e+06
-3.88581e+06
-3.57811e+06
-3.39793e+06
-3.16715e+06
-2.98904e+06
-2.71427e+06
-2.35735e+06
-2.16789e+06
-1.83707e+06
-1.58658e+06
-1.53238e+06
-1.51368e+06
-1.50404e+06
-1.34565e+06
-1.26796e+06
-1.1778e+06
-1.02622e+06
-879582
-839171
-840098
-593555
-605956
-664467
-582932
-544608
-484597
-422336
-371823
-277917
-259460
-208712
-137458
-86470.9
-66023.3
-56984.9
-26872.7
5838.49
20374.9
32600.4
43688.4
53163.5
60661.3
64957.9
66692.3
65629.8
61353.2
56910
53280.8
49304.7
45657.5
43618.9
42258.4
40158.5
36740.6
33281.3
30348.2
27810.9
25419
22780.9
20178.7
18492.9
17428.6
16866.3
16976.2
14911.4
10546.2
7165.17
5328.08
5055.5
5905.18
6933.77
4519.5
342.582
-975.414
-547.81
-101.6
426.678
635.832
-17.7591
223.474
942.079
1459.09
1535.02
1832.68
2447.96
1132.83
-247.795
-4.8832e+06
-4.74416e+06
-4.71989e+06
-4.72661e+06
-4.73347e+06
-4.71144e+06
-4.72848e+06
-4.77084e+06
-4.64345e+06
-4.53672e+06
-4.50054e+06
-4.31308e+06
-4.24814e+06
-3.9363e+06
-3.57747e+06
-3.37452e+06
-3.15507e+06
-3.00167e+06
-2.70762e+06
-2.39473e+06
-2.19696e+06
-1.85291e+06
-1.57406e+06
-1.51528e+06
-1.51519e+06
-1.48745e+06
-1.33072e+06
-1.26426e+06
-1.17838e+06
-1.05474e+06
-901853
-860255
-885694
-608027
-603256
-693029
-573354
-537174
-506557
-437221
-354437
-263680
-253774
-211421
-140541
-86173.7
-66368.3
-56216.5
-26559.5
4470.38
19635.6
32013.1
42852.3
52351.3
59720.6
64450.7
66823
66271.7
62025.3
57640.5
53933.8
49709.1
45780.4
43764.7
42572.5
40390.7
36957
33479.1
30571.3
28061.3
25557.7
22940.4
20217
18365.3
17080.5
16371.1
17080.1
15228.2
10828.7
7306.92
5463.04
5238.09
6087.26
7106.02
4174.11
-249.417
-1481.93
-944.194
-601.633
9.73451
392.745
-246.041
58.364
856.95
1421.1
1365.27
1748.37
2542.66
1365.47
-64.1439
-4.8866e+06
-4.7482e+06
-4.72183e+06
-4.72598e+06
-4.73153e+06
-4.70679e+06
-4.72175e+06
-4.76293e+06
-4.62611e+06
-4.51926e+06
-4.48452e+06
-4.29035e+06
-4.20162e+06
-3.91478e+06
-3.55423e+06
-3.32116e+06
-3.11888e+06
-3.01198e+06
-2.72349e+06
-2.42233e+06
-2.21586e+06
-1.87956e+06
-1.58332e+06
-1.50435e+06
-1.51271e+06
-1.4638e+06
-1.32183e+06
-1.25546e+06
-1.18236e+06
-1.0806e+06
-914562
-873480
-912882
-619689
-593794
-710783
-581876
-530785
-518281
-450037
-349542
-252834
-250483
-214674
-143254
-86246
-67796.2
-56360.9
-26633.8
2762.38
18429.2
31723
42225.5
51470.8
58803.2
63719.4
66953.2
66718.7
62597.5
58338.8
54623.1
50171
45899.6
43902
42848.1
40746.1
37110.2
33666.4
30769.9
28221.5
25777.5
23099
20285.4
18273
16752.2
15675.6
16991.7
15461
11000
7551.27
5666.47
5452.88
6343.01
7309.05
3643.95
-784.196
-1846.54
-1330.4
-1112.48
-427.747
147.279
-471.599
-115.136
772.518
1368.24
1177.17
1641.41
2569.02
1537.93
172.79
-4.88905e+06
-4.75255e+06
-4.72273e+06
-4.72548e+06
-4.72891e+06
-4.70237e+06
-4.71517e+06
-4.75431e+06
-4.61062e+06
-4.50469e+06
-4.46638e+06
-4.27069e+06
-4.14595e+06
-3.84503e+06
-3.51493e+06
-3.25721e+06
-3.08445e+06
-3.02455e+06
-2.74267e+06
-2.44625e+06
-2.23013e+06
-1.90644e+06
-1.61117e+06
-1.51678e+06
-1.51443e+06
-1.4463e+06
-1.31836e+06
-1.24413e+06
-1.18899e+06
-1.10531e+06
-926102
-879670
-931164
-644410
-594961
-718594
-603352
-519847
-525935
-458260
-349827
-245090
-247237
-217107
-145985
-85448.9
-68834
-58413.2
-26819.3
667.352
16602.1
30755.3
41624.6
50903.6
58177.8
63283.8
66763.7
66985
62993.6
58972.8
55386.7
50671.2
46104.3
44030.3
43051.8
40997.1
37360.7
33882.1
30956.1
28372.9
25919.4
23312.6
20343.8
18167
16371.5
14762.1
16494
15860.1
11019.5
7814.36
5913.42
5786.32
6727.18
7659.31
3259.18
-1249.11
-2192.7
-1734.38
-1602.73
-861.179
-98.5659
-664.306
-294.197
668.826
1311.82
940.9
1475.22
2551.08
1744.87
411.078
-4.89063e+06
-4.75717e+06
-4.72156e+06
-4.72565e+06
-4.72548e+06
-4.69825e+06
-4.70895e+06
-4.74439e+06
-4.59905e+06
-4.49288e+06
-4.44685e+06
-4.25649e+06
-4.08666e+06
-3.77594e+06
-3.47835e+06
-3.21839e+06
-3.0703e+06
-3.01002e+06
-2.76165e+06
-2.46841e+06
-2.24227e+06
-1.93481e+06
-1.64979e+06
-1.54767e+06
-1.52625e+06
-1.43651e+06
-1.31459e+06
-1.23423e+06
-1.18926e+06
-1.12459e+06
-942030
-890775
-940016
-677703
-620914
-723299
-631480
-519951
-524406
-461611
-347858
-245617
-249272
-218070
-144959
-84002.6
-67796.9
-61730.2
-27593.6
-844.091
15014
29713.5
40638.3
50034.8
57741.9
62745.2
66344.5
67089.2
63342.5
59475.6
56162.4
51219.3
46388.7
44268.5
43113.6
41170.6
37642.6
34120.5
31158.9
28525.1
26064.7
23508.6
20465.9
18002.7
15810.7
13616.8
15743.5
16197.1
11036.6
8161.33
6215.81
6174.73
7460.44
7942.66
2992.2
-1695.01
-2601.61
-2156.52
-2053.12
-1353.48
-412.876
-847.782
-450.885
582.943
1169.83
685.48
1234.93
2449.02
1879.26
655.353
-4.89141e+06
-4.7616e+06
-4.71894e+06
-4.72644e+06
-4.72116e+06
-4.69475e+06
-4.70303e+06
-4.73381e+06
-4.59315e+06
-4.4832e+06
-4.42676e+06
-4.24379e+06
-4.03304e+06
-3.72902e+06
-3.46887e+06
-3.20218e+06
-3.07227e+06
-2.9896e+06
-2.77299e+06
-2.48815e+06
-2.25563e+06
-1.95341e+06
-1.67799e+06
-1.58502e+06
-1.54792e+06
-1.43163e+06
-1.30761e+06
-1.22566e+06
-1.1817e+06
-1.13648e+06
-968174
-907159
-956937
-730452
-662332
-727450
-650403
-535271
-522667
-464449
-339854
-238415
-250117
-220258
-143815
-82962.9
-63852.9
-63931.9
-28378.1
-1950.94
14264.7
28970.3
39715.1
49416.5
56883.1
62047.8
66053.4
67021.9
63642.1
59982.2
56775.5
51787.2
46867.5
44485.4
43105.5
41314.4
37914.2
34362.8
31353.3
28655
26209.5
23701.8
20574.7
17829.3
15016.6
12397.6
14670.9
16405.7
11138
8505.16
6668.46
6640.1
8357.76
8179.42
2761.96
-2145.08
-2974.37
-2583.55
-2519.46
-1820.68
-793.113
-1019.38
-615.59
494.552
1025.67
397.312
988.522
2325.22
2011.12
915.036
-4.8914e+06
-4.76552e+06
-4.71665e+06
-4.72746e+06
-4.71636e+06
-4.69164e+06
-4.69688e+06
-4.72321e+06
-4.59178e+06
-4.47373e+06
-4.40677e+06
-4.23188e+06
-3.99347e+06
-3.72467e+06
-3.48627e+06
-3.19749e+06
-3.10029e+06
-2.97474e+06
-2.76229e+06
-2.49209e+06
-2.26213e+06
-1.96725e+06
-1.69222e+06
-1.61165e+06
-1.56861e+06
-1.42954e+06
-1.29095e+06
-1.21135e+06
-1.17628e+06
-1.1409e+06
-996980
-924841
-972926
-799415
-705861
-720827
-668465
-553404
-519397
-475401
-331613
-239214
-246428
-223941
-145131
-81311
-61888.6
-64261.4
-28072.3
-1508.5
13993.3
28409
39074.3
48509.5
55965.5
61503.9
65805.9
66874.1
63744.4
60401.7
57317.3
52354.6
47408.7
44683.4
43142.1
41447.4
38163.9
34599.5
31537.7
28791.6
26336.5
23888.4
20685.3
17646.2
14001.2
11156.6
13545.5
16404
11378.9
8781.23
7225.17
7478.98
9255.1
8441.17
2660.64
-2375.48
-3298.34
-2986.19
-3004.45
-2362.74
-1125.83
-1160.46
-773.74
364.698
878.213
78.0121
701.028
2154.46
2189.57
1195.36
-4.8907e+06
-4.76917e+06
-4.71605e+06
-4.72778e+06
-4.71236e+06
-4.68915e+06
-4.69049e+06
-4.71336e+06
-4.59398e+06
-4.46405e+06
-4.38981e+06
-4.22138e+06
-3.9701e+06
-3.74774e+06
-3.52695e+06
-3.21495e+06
-3.1333e+06
-2.96571e+06
-2.73504e+06
-2.48435e+06
-2.25442e+06
-1.97874e+06
-1.69044e+06
-1.6151e+06
-1.57902e+06
-1.42123e+06
-1.26591e+06
-1.19232e+06
-1.17339e+06
-1.14703e+06
-1.0239e+06
-939832
-967664
-821278
-729232
-723014
-681470
-568424
-520980
-487257
-324966
-249356
-236852
-224123
-150341
-79039.3
-61478.3
-62575
-25277.6
505.414
14126.3
28169.6
38517.9
47553.1
55212.4
61008.7
65591.8
66747.4
63853.2
60761.5
57725.7
52979.5
48009.1
44805
43183
41545.9
38405
34843.2
31724.9
28929.6
26466.3
24064.3
20804.6
17457.9
12935.1
9680.95
12288.5
16176.2
11667.5
9008.16
7927.94
8614.66
10294.5
8674.87
2710.7
-2437.51
-3519.68
-3394.69
-3551.61
-2860.69
-1415.42
-1290.37
-951.679
208.65
704.058
-264.26
411.262
2027.56
2338.5
1426.14
-4.8893e+06
-4.77255e+06
-4.71718e+06
-4.72603e+06
-4.71041e+06
-4.68796e+06
-4.68358e+06
-4.70377e+06
-4.59617e+06
-4.45681e+06
-4.37823e+06
-4.21261e+06
-3.95811e+06
-3.79469e+06
-3.57513e+06
-3.23516e+06
-3.15632e+06
-2.95933e+06
-2.71106e+06
-2.4825e+06
-2.23978e+06
-1.99479e+06
-1.68025e+06
-1.59804e+06
-1.58163e+06
-1.41169e+06
-1.23961e+06
-1.18286e+06
-1.18057e+06
-1.15458e+06
-1.0394e+06
-953140
-957331
-810198
-737932
-735151
-677255
-576536
-531008
-489548
-319557
-261880
-231406
-219882
-154583
-79241.3
-64952.9
-61243.4
-16728.5
5201.74
14906.6
28330.2
38042.8
46693.6
54425.3
60615.9
65284.5
66611.3
64055.1
61120
58089.3
53559
48563
45016.1
43210.1
41626.7
38614.2
35081
31929.3
28981.6
26609.7
24244.7
20948.1
17191
11976.6
8178.68
10787.7
15710
12002.8
9328.75
8819.31
9931.25
11380.9
8871.87
2819.59
-2314.14
-3710.8
-3823.56
-4025.27
-3310.52
-1729.35
-1387.55
-1097.9
4.27935
418.777
-610.797
100.186
1875.7
2496.54
1650.49
-4.88704e+06
-4.77561e+06
-4.71942e+06
-4.72202e+06
-4.70966e+06
-4.68737e+06
-4.67566e+06
-4.69383e+06
-4.59484e+06
-4.45551e+06
-4.37483e+06
-4.2038e+06
-3.95352e+06
-3.85298e+06
-3.6246e+06
-3.23967e+06
-3.17022e+06
-2.96038e+06
-2.70279e+06
-2.48143e+06
-2.22311e+06
-2.01314e+06
-1.6758e+06
-1.57697e+06
-1.58129e+06
-1.40943e+06
-1.23281e+06
-1.18569e+06
-1.19171e+06
-1.16218e+06
-1.04556e+06
-967398
-953340
-800133
-739985
-742357
-670439
-584584
-547014
-485342
-320336
-269313
-234518
-220633
-162166
-84447
-71229.3
-62047.1
-8941.39
11090.3
16223.5
28780.5
37783.9
45847.1
53679.7
60211.1
65073.3
66466.1
64240.5
61464.9
58436
54094.6
49098.1
45258.6
43294.9
41580.5
38801.4
35319.4
32057.9
29113.7
26715.8
24424.9
21093.6
17003.3
11021.8
6740.46
9306.27
15058.9
12386.4
9745.35
9886.33
11274.6
12351.4
9045.76
2999.08
-2084.78
-3862.26
-4163
-4430.57
-3771.14
-2042.46
-1455.85
-1258.27
-284.155
111.841
-915.198
-216.037
1720.87
2634.79
1803.55
-4.88373e+06
-4.77801e+06
-4.72237e+06
-4.71804e+06
-4.7086e+06
-4.68485e+06
-4.66783e+06
-4.68315e+06
-4.59455e+06
-4.46104e+06
-4.37068e+06
-4.19001e+06
-3.95307e+06
-3.88966e+06
-3.65173e+06
-3.27334e+06
-3.17906e+06
-2.94497e+06
-2.68957e+06
-2.47301e+06
-2.21918e+06
-2.03541e+06
-1.68371e+06
-1.55871e+06
-1.57815e+06
-1.40782e+06
-1.23437e+06
-1.19291e+06
-1.20711e+06
-1.1698e+06
-1.04372e+06
-983407
-951269
-797914
-743138
-743098
-667493
-593418
-567057
-482630
-327869
-274853
-242857
-222660
-172958
-89852.3
-77827.3
-64037.1
-2091.9
16570.8
17901.3
29320.2
37659.1
45093.1
52976.4
59887.3
64796.5
66227.2
64474.8
61806.2
58768.3
54602.5
49639.9
45553.7
43312.1
41595.9
38948.5
35566.1
32206.2
29144.2
26832.6
24596.3
21233.1
16801.4
10193.2
5623.6
7902.02
14349.4
12755.8
10291.5
11017
12498.6
13142.7
9195.23
3265.28
-1827.3
-3941.37
-4485.49
-4813.87
-4229.86
-2369
-1536.46
-1466.43
-589.326
-208.314
-1181.87
-478.512
1567.8
2745.03
1949.1
-4.87886e+06
-4.7797e+06
-4.72566e+06
-4.71513e+06
-4.70506e+06
-4.68274e+06
-4.66106e+06
-4.67178e+06
-4.59737e+06
-4.46499e+06
-4.35747e+06
-4.17978e+06
-3.95332e+06
-3.89321e+06
-3.63053e+06
-3.27627e+06
-3.17432e+06
-2.92287e+06
-2.66832e+06
-2.46252e+06
-2.22737e+06
-2.04478e+06
-1.67903e+06
-1.56097e+06
-1.57434e+06
-1.39668e+06
-1.2344e+06
-1.20452e+06
-1.22688e+06
-1.17583e+06
-1.04094e+06
-996134
-951386
-799792
-746988
-741616
-670840
-602991
-582205
-483233
-342144
-280086
-250699
-225630
-184754
-94638.2
-81475.2
-64644.5
4466.29
21724.4
19414
29745.3
37490.9
44348.5
52388.7
59493.3
64431.3
66059.2
64659.6
62138.1
59096.5
55104.2
50188.5
45786
43318
41637.6
39082.4
35817.5
32360.1
29182.2
26920.2
24748.2
21394.3
16668.6
9420.71
5018.98
6824.07
13661
13146
10944.9
12070.8
13598.1
13743
9422.56
3531.08
-1591.41
-3952.35
-4745.89
-5150.88
-4631.65
-2711.3
-1672.7
-1691.25
-871.127
-503.376
-1376.57
-695.964
1470.88
2835.21
2053.4
-4.87251e+06
-4.78106e+06
-4.72949e+06
-4.71372e+06
-4.69852e+06
-4.68134e+06
-4.65433e+06
-4.65963e+06
-4.60151e+06
-4.47466e+06
-4.35173e+06
-4.17579e+06
-3.95394e+06
-3.87412e+06
-3.57384e+06
-3.2366e+06
-3.15929e+06
-2.90012e+06
-2.64287e+06
-2.43689e+06
-2.22016e+06
-2.04471e+06
-1.67669e+06
-1.58764e+06
-1.57315e+06
-1.3772e+06
-1.22934e+06
-1.22044e+06
-1.24781e+06
-1.17958e+06
-1.03972e+06
-1.00129e+06
-953211
-805910
-751211
-740029
-677243
-616098
-588163
-483621
-358358
-284997
-255112
-228250
-194844
-101691
-82389.4
-64887.6
7695.62
25302.2
20745.1
30198.1
37040.2
43507.6
51823.7
59086.5
64116.2
65877.3
64857.3
62438.5
59447.5
55590
50608.6
46034.4
43369.9
41655.4
39235.9
36038.5
32495.7
29236.1
26976.7
24901.3
21563.3
16638.5
8843.54
4488.86
5874.46
13053.4
13575.9
11852.8
13094
14484.6
14214.2
9512.32
3670.82
-1322.89
-3888.74
-4973.76
-5477.85
-4968.91
-3046.2
-1824.68
-1892.83
-1167.48
-783.067
-1538.59
-825.779
1426.31
2931.98
2110.84
-4.86535e+06
-4.78296e+06
-4.73383e+06
-4.7128e+06
-4.69148e+06
-4.67782e+06
-4.64762e+06
-4.65002e+06
-4.60614e+06
-4.48937e+06
-4.35601e+06
-4.17769e+06
-3.95978e+06
-3.84474e+06
-3.51571e+06
-3.21567e+06
-3.17183e+06
-2.86196e+06
-2.61324e+06
-2.41554e+06
-2.17412e+06
-2.02323e+06
-1.6802e+06
-1.62135e+06
-1.57401e+06
-1.35617e+06
-1.22246e+06
-1.23723e+06
-1.27029e+06
-1.18346e+06
-1.03975e+06
-1.00681e+06
-957994
-815777
-756830
-741052
-683685
-632231
-587262
-480657
-370203
-290240
-257143
-230372
-202791
-111035
-82408.1
-66746.8
5601.45
26437.8
21524.5
30334.7
36485.6
42680.4
51212.8
58749.4
63727.9
65843.4
65012.5
62729.9
59867.7
55932.8
50952.5
46250.2
43357.5
41667.3
39366.3
36243.1
32634.1
29273.2
27023.5
25017.7
21792.1
16944.6
8529.76
3807.85
5016.22
12578.1
13992.2
12879
14104.9
15251.1
14450
9513.98
3763
-1040.12
-3817.62
-5181.24
-5728.06
-5304.04
-3345.39
-1999.85
-2058.69
-1451.12
-1036.46
-1638.65
-911.369
1452.81
3053.65
2150.01
-4.85851e+06
-4.78462e+06
-4.7383e+06
-4.71183e+06
-4.68557e+06
-4.66894e+06
-4.64273e+06
-4.64439e+06
-4.61138e+06
-4.50202e+06
-4.36503e+06
-4.1879e+06
-3.97037e+06
-3.80841e+06
-3.49027e+06
-3.24772e+06
-3.18993e+06
-2.82805e+06
-2.59769e+06
-2.37817e+06
-2.11087e+06
-2.00299e+06
-1.68895e+06
-1.6537e+06
-1.57866e+06
-1.34305e+06
-1.21986e+06
-1.24992e+06
-1.28865e+06
-1.18818e+06
-1.04564e+06
-1.01272e+06
-965189
-828642
-763631
-744371
-691864
-649908
-584340
-476399
-377566
-296668
-258482
-232996
-209591
-122076
-83592.6
-68278.3
1315.5
25134.2
21874
30323.5
35827.7
41785.1
50621.8
58454.9
63443.5
65891.1
65115.1
62957.8
60244.8
56253.4
51261
46374.9
43328.6
41665
39460.3
36448.7
32794.5
29337.8
27053.5
25133.9
22064.9
17428.5
8723.6
3159.09
4263.32
12155
14504
13935.6
14800
15799.8
14482.9
9482.98
3981.83
-826.44
-3777.39
-5370.32
-5974.4
-5531.54
-3582.4
-2171.85
-2230.78
-1685.58
-1207.61
-1647.58
-963.076
1500
3178.64
2156.57
-4.85335e+06
-4.785e+06
-4.74221e+06
-4.7108e+06
-4.68161e+06
-4.65645e+06
-4.6366e+06
-4.63665e+06
-4.61404e+06
-4.51217e+06
-4.37627e+06
-4.20459e+06
-3.9921e+06
-3.78082e+06
-3.47821e+06
-3.31284e+06
-3.22279e+06
-2.82322e+06
-2.59614e+06
-2.34185e+06
-2.07389e+06
-1.97523e+06
-1.70957e+06
-1.68491e+06
-1.59294e+06
-1.33369e+06
-1.22081e+06
-1.25957e+06
-1.30222e+06
-1.19262e+06
-1.06315e+06
-1.02041e+06
-974003
-845246
-772394
-750193
-704090
-666612
-582909
-471692
-384406
-306487
-259354
-236291
-215560
-132786
-85634.3
-68605.7
-3970.96
22430.1
22040.6
30077.1
35265.5
41015.9
50087.7
58219.3
63340.3
65943.9
65194.8
63158.8
60531.7
56550.8
51486.9
46448.7
43273.7
41639.3
39601.3
36709.9
32967.6
29445
27126.1
25236.5
22478.4
17963.7
9268.62
2909.71
3796.88
11960.6
15070
14987.7
15366.3
16086.6
14377.1
9390.44
4102.64
-487.977
-3703.59
-5502.3
-6141.7
-5699.58
-3700.62
-2351.8
-2402.48
-1789.51
-1276.56
-1643.83
-955.899
1583.08
3302.87
2110.68
-4.85039e+06
-4.78272e+06
-4.7445e+06
-4.70991e+06
-4.6776e+06
-4.6455e+06
-4.62284e+06
-4.62906e+06
-4.61513e+06
-4.51986e+06
-4.39247e+06
-4.22979e+06
-4.02572e+06
-3.77302e+06
-3.46361e+06
-3.36555e+06
-3.27695e+06
-2.84606e+06
-2.59358e+06
-2.31105e+06
-2.06711e+06
-1.93815e+06
-1.73225e+06
-1.70555e+06
-1.62891e+06
-1.34097e+06
-1.22789e+06
-1.26758e+06
-1.31237e+06
-1.19221e+06
-1.06715e+06
-1.0157e+06
-977981
-865100
-782487
-758322
-719651
-681035
-580455
-467913
-393921
-318605
-260689
-240793
-220820
-143476
-87064.2
-65531.1
-8121.78
18699.9
22265.4
29756.5
34793.8
40305.8
49558.6
58089.1
63356
65980.3
65212.2
63231.3
60792.9
56830.8
51684
46522.1
43184.5
41614.9
39835.5
36940.9
33178.4
29555.9
27209.2
25376.8
23016.1
18700.5
10135.3
3364.82
3531.28
12041.2
15510.6
15998.6
15794.8
16335.2
14112.7
9355.35
4332.33
-191.043
-3646.52
-5551.35
-6270.43
-5812.86
-3730.05
-2537.78
-2547.7
-1760.7
-1173.23
-1621.91
-885.065
1713.04
3441.14
2051.96
-4.84803e+06
-4.77791e+06
-4.74464e+06
-4.70878e+06
-4.67439e+06
-4.63698e+06
-4.60605e+06
-4.61827e+06
-4.60708e+06
-4.5202e+06
-4.41306e+06
-4.26682e+06
-4.06807e+06
-3.76311e+06
-3.44885e+06
-3.39334e+06
-3.32681e+06
-2.89003e+06
-2.57274e+06
-2.28591e+06
-2.07674e+06
-1.90639e+06
-1.73556e+06
-1.71504e+06
-1.67911e+06
-1.35905e+06
-1.24493e+06
-1.28299e+06
-1.32302e+06
-1.18444e+06
-1.05239e+06
-1.00959e+06
-975125
-882927
-788906
-761858
-731870
-689626
-579196
-466537
-403219
-330382
-258379
-244273
-228154
-155263
-87470.6
-58905.2
-10260
15333.6
22506
29448.8
34419.8
39867.9
49189.9
57970.9
63243.5
65919.9
65080.1
63331.1
61071.5
57089.8
52013.1
46560.6
43030.1
41546.5
39990.4
37291.8
33419
29691.4
27267.6
25562.1
23694.5
19539.7
11197.3
4309.1
3481.94
12117.8
15860.4