/*--------------------------------*- C++ -*----------------------------------*\
| =========                 |                                                 |
| \\      /  F ield         | foam-extend: Open Source CFD                    |
|  \\    /   O peration     | Version:     5.0                                |
|   \\  /    A nd           | Web:         http://www.foam-extend.org         |
|    \\/     M anipulation  |                                                 |
\*---------------------------------------------------------------------------*/
FoamFile
{
    version     2.0;
    format      ascii;
    class       volScalarField;
    location    "0.095";
    object      pd;
}
// * * * * * * * * * * * * * * * * * * * * * * * * * * * * * * * * * * * * * //

dimensions      [1 -1 -2 0 0 0 0];

internalField   nonuniform List<scalar> 
4000
(
-4.82408e+06
-4.75424e+06
-4.71649e+06
-4.7153e+06
-4.7293e+06
-4.74621e+06
-4.78242e+06
-4.83613e+06
-4.80208e+06
-4.6491e+06
-4.4703e+06
-4.42222e+06
-4.42482e+06
-4.31276e+06
-4.18834e+06
-3.81192e+06
-3.2206e+06
-2.7221e+06
-2.4413e+06
-2.22634e+06
-2.02406e+06
-1.71841e+06
-1.4153e+06
-1.28174e+06
-1.26242e+06
-1.09908e+06
-792861
-1.10204e+06
-1.10666e+06
-798293
-605243
-634145
-649216
-577606
-537446
-559158
-590423
-566157
-472512
-393221
-325780
-284607
-235096
-168323
-117437
-79873.2
-51134.4
-26389.5
-4074.82
14887.7
26727.2
34957.8
43652.8
50089.1
54989.9
58145.4
59997.2
59338.9
57375.1
55252.7
51808
48275.7
45314.2
43257.3
40975.2
38469.6
35818.6
32132
28879.3
26564.8
24688.3
22706.4
20983
20042.3
19206.9
18003.5
16088.7
13501.4
10799.8
8244.95
5947.11
4511.13
4758.34
5646.83
5166.63
3503.2
2138.64
1620.9
2074.95
2643.56
2019.98
1316.41
1042.79
1177.02
1695.96
2091.39
2161.92
1482.77
230.727
-11.9901
-4.82242e+06
-4.75199e+06
-4.71668e+06
-4.71625e+06
-4.72949e+06
-4.74291e+06
-4.7792e+06
-4.83544e+06
-4.80823e+06
-4.67212e+06
-4.46172e+06
-4.41282e+06
-4.42313e+06
-4.30134e+06
-4.18069e+06
-3.8062e+06
-3.22621e+06
-2.73318e+06
-2.44757e+06
-2.21809e+06
-2.02683e+06
-1.73937e+06
-1.45356e+06
-1.29688e+06
-1.26827e+06
-1.11859e+06
-814589
-1.10284e+06
-1.07876e+06
-717253
-562661
-610083
-636536
-584362
-526294
-544820
-581938
-549688
-459651
-372877
-311311
-274519
-227605
-165183
-114119
-77171.1
-49589.5
-25569.6
-3382.27
15418.6
26796.7
34990.5
43724.3
50093
54786.2
57646.3
59777.6
59075.5
57047.7
55066.7
51518.3
48152.6
45119
43135.1
40854.8
38359.3
35726.6
32021.6
28816.2
26526.7
24653.8
22656.8
20917.2
19971.8
19126.6
17933
16049.8
13477.6
10773.9
8240.26
5936.29
4438.6
4682.17
5577.62
5129.52
3488.69
2156.84
1707.54
2146.11
2711.37
2048.99
1376.51
1103.54
1221.08
1723.93
2113.65
2185.93
1537.85
256.887
-38.167
-4.8219e+06
-4.74866e+06
-4.71636e+06
-4.71772e+06
-4.73053e+06
-4.74169e+06
-4.78033e+06
-4.83878e+06
-4.81028e+06
-4.68755e+06
-4.46916e+06
-4.40846e+06
-4.39529e+06
-4.26019e+06
-4.15346e+06
-3.81486e+06
-3.25372e+06
-2.7493e+06
-2.43188e+06
-2.20647e+06
-2.04183e+06
-1.8162e+06
-1.49912e+06
-1.33497e+06
-1.3135e+06
-1.15963e+06
-894371
-1.18108e+06
-1.18138e+06
-751161
-585459
-626029
-649344
-581064
-509743
-545552
-585091
-543090
-454006
-373666
-315791
-277727
-228045
-164122
-112397
-75506.9
-48704.2
-25174.7
-2756.27
16136.5
27271.3
35326.8
43914.2
50279.1
54823.4
57352.2
59745.9
58928.5
56793.1
54721.4
51410.1
48144.2
44945.2
43051.5
40779.5
38413.8
35609.3
31876.9
28805.9
26410.6
24550.3
22624.2
20866.4
19922.1
19091.7
17875.1
16016.8
13459
10735.4
8204.31
5885.17
4362.17
4607.56
5536.86
5148.89
3546.25
2190.77
1759.19
2181.92
2699.34
2124.89
1445.81
1120.34
1232.92
1733.72
2117.68
2203.71
1589.47
251.843
-88.001
-4.82246e+06
-4.74522e+06
-4.71586e+06
-4.71902e+06
-4.73141e+06
-4.7409e+06
-4.78038e+06
-4.83318e+06
-4.80149e+06
-4.6914e+06
-4.50068e+06
-4.41749e+06
-4.3604e+06
-4.19455e+06
-4.07359e+06
-3.79901e+06
-3.28949e+06
-2.7686e+06
-2.42478e+06
-2.18523e+06
-2.04344e+06
-1.87143e+06
-1.53879e+06
-1.38884e+06
-1.36154e+06
-1.19681e+06
-943751
-1.1714e+06
-1.23999e+06
-812295
-614369
-643902
-651947
-573697
-512818
-581810
-616258
-552186
-471751
-392530
-335013
-290336
-234019
-165318
-114002
-75856.4
-48158.5
-25748.9
-2367.15
16806.9
27908
35839.9
44172.2
50509.9
54955.2
57500.2
59736
58874
56667.5
54492.6
51321.3
48105.5
44992
42989.9
40751.9
38457.8
35547
31871.6
28707.8
26320.9
24544.1
22589.5
20781
19857.1
19035.8
17835.3
15964.6
13460
10691.8
8105.3
5814.39
4320.8
4543.79
5519.52
5254.56
3575.27
2220.49
1766.88
2191.39
2702.16
2104.26
1463.29
1115.76
1244.78
1731.49
2103.58
2218.36
1646.17
257.296
-134.742
-4.82454e+06
-4.74125e+06
-4.71499e+06
-4.71994e+06
-4.73212e+06
-4.73962e+06
-4.77837e+06
-4.82536e+06
-4.78788e+06
-4.67903e+06
-4.52376e+06
-4.42167e+06
-4.33852e+06
-4.14454e+06
-3.99472e+06
-3.77134e+06
-3.31003e+06
-2.77908e+06
-2.42864e+06
-2.17586e+06
-2.03094e+06
-1.84895e+06
-1.54417e+06
-1.43594e+06
-1.40118e+06
-1.22544e+06
-964800
-1.1078e+06
-1.1845e+06
-825757
-634442
-662733
-661831
-570225
-519499
-616418
-644447
-564030
-484345
-407370
-349699
-302877
-241630
-167918
-117247
-77671.5
-49648.1
-25701.8
-1800.11
17336.7
28446.2
36344.8
44527.5
50765.7
55237.1
57780.7
59944.2
58969.6
56698.3
54406.3
51265.4
48071
45093.1
43015.2
40906.2
38427.1
35467.7
31872.9
28608.2
26358.9
24624.6
22573
20713.9
19782.5
18991.3
17747.4
15966.7
13420.6
10639.7
8001.62
5716.66
4294.57
4508.89
5616.16
5330.91
3601.04
2217.49
1764.82
2167.4
2687.45
2035.8
1411.88
1152.58
1236.58
1719.79
2084.95
2229.75
1691.52
242.549
-222.633
-4.82845e+06
-4.73734e+06
-4.71359e+06
-4.72092e+06
-4.733e+06
-4.7381e+06
-4.77475e+06
-4.81969e+06
-4.77949e+06
-4.66839e+06
-4.53687e+06
-4.4212e+06
-4.3234e+06
-4.09993e+06
-3.92456e+06
-3.738e+06
-3.30475e+06
-2.79935e+06
-2.44531e+06
-2.17822e+06
-2.0213e+06
-1.79614e+06
-1.55303e+06
-1.479e+06
-1.44201e+06
-1.24506e+06
-979802
-1.07519e+06
-1.09439e+06
-805180
-648962
-684879
-680108
-585487
-531841
-619362
-642826
-565628
-486555
-410620
-354501
-316314
-257548
-174849
-119879
-80381
-51444.6
-25674.8
-2089.78
17365
28506.8
36865.8
44910.9
51120.4
55605.4
58159.3
60346.1
59267.4
56833.8
54429.5
51243.6
48049.5
45147.8
43112.6
41113
38579.4
35383.6
31827.5
28704
26528.9
24658.5
22512.2
20602
19660.8
18903.4
17705.6
15974.1
13444.6
10574.2
7892.06
5628.52
4254.87
4525.87
5784.17
5531.66
3518.81
2174.43
1724.09
2123.13
2673.58
1917.16
1348.91
1157.35
1227.18
1671.49
2050.68
2219.75
1730.53
202.783
-323.417
-4.83375e+06
-4.73446e+06
-4.71244e+06
-4.72172e+06
-4.73372e+06
-4.73661e+06
-4.77075e+06
-4.81712e+06
-4.77106e+06
-4.66282e+06
-4.54642e+06
-4.42399e+06
-4.31635e+06
-4.05725e+06
-3.84731e+06
-3.70065e+06
-3.30375e+06
-2.8506e+06
-2.47605e+06
-2.17901e+06
-2.03161e+06
-1.76747e+06
-1.57882e+06
-1.51798e+06
-1.47984e+06
-1.24448e+06
-968420
-1.05382e+06
-1.05305e+06
-804946
-661948
-710480
-703273
-597894
-545185
-611897
-625786
-557871
-481999
-410667
-355457
-323687
-272226
-188918
-125473
-83195.3
-53149
-27979.4
-3196.22
16830.5
27901.1
37120.1
45361
51563.9
56144.6
58900.3
60732.2
59616.9
57068.6
54517.4
51266.3
48056.6
45154.5
43199.7
41340
38730.8
35437.3
31955.3
28921.2
26679.6
24593.3
22412
20539.2
19537.7
18773.2
17665.7
16008.5
13460.9
10518.5
7768.39
5502.63
4252.11
4595.66
6107.77
5639.33
3394.02
2102.69
1608.85
2055.24
2545.12
1837.46
1335.21
1152.34
1203.76
1605.82
1993.71
2191.02
1771.75
174.347
-428.212
-4.84e+06
-4.73259e+06
-4.71149e+06
-4.7225e+06
-4.73465e+06
-4.73498e+06
-4.76664e+06
-4.81468e+06
-4.76045e+06
-4.65746e+06
-4.55185e+06
-4.42483e+06
-4.31276e+06
-4.01827e+06
-3.76555e+06
-3.64296e+06
-3.30308e+06
-2.90416e+06
-2.49994e+06
-2.17257e+06
-2.04692e+06
-1.7747e+06
-1.59267e+06
-1.53641e+06
-1.50774e+06
-1.26241e+06
-1.01174e+06
-1.02302e+06
-1.02027e+06
-792601
-675331
-738866
-735755
-611785
-555872
-605627
-610203
-547638
-473057
-409090
-352845
-326211
-275214
-198695
-133403
-87111.4
-57541.1
-33012.9
-5781.66
15498.5
26905.3
37459.5
46121.6
52323.9
56940.8
59814.8
61262.9
60072
57542.4
54541.5
51275.4
48060.3
45138.5
43341.7
41455.4
38886.9
35633.2
32128.7
29203.1
26708.6
24592.9
22412.2
20388.1
19388.3
18665.5
17627.3
16052
13514.9
10453.6
7635.27
5417.54
4266.43
4770.28
6418.79
5730.42
3186.32
1865.19
1470.74
1895.98
2344.31
1752.85
1229.63
1066.55
1154.5
1525.33
1939.14
2160.34
1816.28
198.202
-518.714
-4.84676e+06
-4.73146e+06
-4.71106e+06
-4.72359e+06
-4.73537e+06
-4.73329e+06
-4.76252e+06
-4.81153e+06
-4.74692e+06
-4.64875e+06
-4.55371e+06
-4.4203e+06
-4.30932e+06
-3.9819e+06
-3.67907e+06
-3.57274e+06
-3.29877e+06
-2.94343e+06
-2.52445e+06
-2.13888e+06
-2.04848e+06
-1.7937e+06
-1.59258e+06
-1.56189e+06
-1.52784e+06
-1.28193e+06
-1.08773e+06
-1.00901e+06
-1.0364e+06
-796470
-694264
-759061
-757633
-617493
-569268
-609126
-605830
-548295
-463211
-408716
-348915
-316780
-274150
-202460
-134813
-89155.1
-63607.9
-43799.4
-11165
13854.9
26743.7
37392.4
46717.4
53238.5
57910.4
60851.5
62027.9
60732.2
57990.8
54720.5
51378.1
48071.6
45195.9
43347.5
41487.8
39049.8
35923.1
32353.1
29373.6
26824.9
24599.5
22405.9
20302.9
19241.1
18524.6
17559.8
16138
13603.8
10384
7492.39
5339.97
4326.09
4898.82
6683.71
5689.71
2956.33
1509.42
1260.39
1690.05
2080.87
1651.56
1097.37
958.606
1092.39
1484.4
1881.8
2144.21
1933.28
267.772
-588.666
-4.85384e+06
-4.73151e+06
-4.71127e+06
-4.72471e+06
-4.73617e+06
-4.73112e+06
-4.75839e+06
-4.80725e+06
-4.73143e+06
-4.63589e+06
-4.55195e+06
-4.41083e+06
-4.30695e+06
-3.95133e+06
-3.5877e+06
-3.50151e+06
-3.29054e+06
-2.94541e+06
-2.5547e+06
-2.14927e+06
-2.04338e+06
-1.79641e+06
-1.59781e+06
-1.56723e+06
-1.52141e+06
-1.33958e+06
-1.17559e+06
-1.0501e+06
-1.06911e+06
-823169
-712735
-772639
-769982
-602921
-574055
-610572
-603410
-555406
-455457
-410048
-353195
-305359
-267223
-201350
-134758
-88323.8
-66943.9
-55132.8
-19003.6
11510
25577.7
36761.9
47713.4
54161.3
59006.2
61971.6
62974.3
61597.5
58545.4
54988.9
51559.6
48178.5
45219
43333.3
41513.1
39295.7
36213.4
32578.4
29578.6
27001.7
24649.9
22402.3
20274.9
19082.1
18337.8
17491.1
16237.1
13753.9
10320.9
7356.48
5231.2
4453.57
5087.64
6827.18
5616.33
2579.11
1134.13
1015.92
1429.47
1799.07
1490.59
962.428
813.125
1052.3
1452.58
1863.53
2081.31
2030.52
407.337
-608.273
-4.86096e+06
-4.73248e+06
-4.71216e+06
-4.72566e+06
-4.73654e+06
-4.7285e+06
-4.75342e+06
-4.80221e+06
-4.71361e+06
-4.61897e+06
-4.54672e+06
-4.39686e+06
-4.30431e+06
-3.9228e+06
-3.52698e+06
-3.44612e+06
-3.29297e+06
-2.94102e+06
-2.55444e+06
-2.17249e+06
-2.05792e+06
-1.81462e+06
-1.61366e+06
-1.56051e+06
-1.49877e+06
-1.40364e+06
-1.22811e+06
-1.14575e+06
-1.10237e+06
-869050
-733521
-783380
-767114
-594309
-580607
-608652
-598578
-558422
-445302
-415665
-361684
-300634
-265022
-199070
-132488
-87549
-68186.2
-58724.3
-25179.8
9281.42
23540.6
36236.8
47421.7
54789.7
60476.2
63130.5
64040
62595
59259
55328.4
51822.8
48337.3
45286.2
43357.2
41556.8
39625.2
36457.1
32668.5
29787.5
27226
24731
22402.3
20251.9
18909.7
18189.8
17394.1
16379.4
13947.5
10279.4
7221.42
5230.07
4571.74
5291.82
6889.96
5415.03
2152.78
708.345
663.192
1156.21
1478.62
1308.33
727.883
653.526
1040.17
1490.6
1802.53
2039.7
2128.22
547.023
-581.438
-4.86769e+06
-4.7344e+06
-4.71364e+06
-4.72633e+06
-4.73646e+06
-4.72496e+06
-4.74793e+06
-4.79529e+06
-4.69532e+06
-4.59913e+06
-4.53855e+06
-4.37905e+06
-4.29791e+06
-3.89645e+06
-3.53748e+06
-3.41293e+06
-3.24995e+06
-2.98291e+06
-2.64761e+06
-2.22822e+06
-2.10868e+06
-1.83195e+06
-1.61298e+06
-1.55323e+06
-1.48395e+06
-1.457e+06
-1.2722e+06
-1.21227e+06
-1.12976e+06
-924607
-774415
-801999
-769519
-587390
-590879
-613370
-596247
-557502
-442768
-421936
-373866
-299293
-265251
-202887
-132799
-85756.9
-67455.8
-59095.4
-27418.1
8069.03
22288.9
34847.4
45716.5
55047.1
61662.9
64035.7
65094.2
63679.6
60105.5
55658.8
52200
48527.3
45415.1
43396.5
41726.8
39833.7
36518.8
32849.9
30031.4
27389.2
24919
22520.2
20198.9
18755.5
17961.1
17302
16547.3
14239.5
10277.3
7144.51
5233.88
4712.76
5479.91
6887.66
5187.77
1613.98
194.641
321.441
763.755
1157.25
1097.74
468.266
491.727
1045.81
1509.33
1726.28
1990.97
2251.89
717.328
-511.77
-4.87377e+06
-4.73714e+06
-4.71561e+06
-4.72669e+06
-4.73596e+06
-4.72072e+06
-4.74171e+06
-4.78712e+06
-4.67808e+06
-4.57771e+06
-4.52739e+06
-4.35921e+06
-4.28782e+06
-3.87401e+06
-3.56098e+06
-3.39962e+06
-3.19625e+06
-2.97994e+06
-2.71488e+06
-2.30056e+06
-2.14674e+06
-1.83312e+06
-1.60177e+06
-1.54565e+06
-1.5e+06
-1.49789e+06
-1.32197e+06
-1.24387e+06
-1.15929e+06
-979319
-833739
-819378
-795475
-584569
-600256
-632743
-593924
-551836
-457289
-423075
-381067
-292717
-265346
-206113
-134763
-86323.3
-66314.1
-58017.5
-27370.7
7011.2
21275.6
33520
44535.2
53878
61808.5
64793.9
65973
64857.4
60712.9
56194.2
52685.3
48840.8
45551.6
43472.9
41978.5
39918.3
36643.4
33084.4
30160.4
27636.6
25179.1
22609.8
20207
18641.4
17708.6
17141.5
16774.1
14545
10359.3
7135.34
5242.2
4879.76
5685.75
6897.59
4815.25
920.602
-404.788
-79.3224
370.607
803.585
869.03
214.031
368.112
979.284
1479.78
1666.89
1930.14
2344.83
935.364
-416.785
-4.87895e+06
-4.74041e+06
-4.7176e+06
-4.72687e+06
-4.73503e+06
-4.71609e+06
-4.73518e+06
-4.77885e+06
-4.66105e+06
-4.55656e+06
-4.51466e+06
-4.33721e+06
-4.27208e+06
-3.88581e+06
-3.57811e+06
-3.39793e+06
-3.16715e+06
-2.98904e+06
-2.71427e+06
-2.35735e+06
-2.16788e+06
-1.83707e+06
-1.58658e+06
-1.53238e+06
-1.51368e+06
-1.50404e+06
-1.34565e+06
-1.26796e+06
-1.1778e+06
-1.02622e+06
-879581
-839170
-840097
-593554
-605955
-664467
-582932
-544607
-484596
-422335
-371822
-277916
-259459
-208711
-137457
-86470.4
-66022.9
-56984.4
-26872.2
5838.98
20375.4
32600.9
43688.9
53164
60661.8
64958.4
66692.8
65630.3
61353.7
56910.5
53281.3
49305.2
45658
43619.4
42258.9
40159
36741.1
33281.8
30348.6
27811.4
25419.5
22781.4
20179.2
18493.4
17429.1
16866.8
16976.7
14911.9
10546.7
7165.66
5328.57
5055.99
5905.67
6934.26
4519.99
343.073
-974.924
-547.319
-101.11
427.169
636.323
-17.2686
223.965
942.569
1459.59
1535.51
1833.17
2448.45
1133.32
-247.305
-4.8832e+06
-4.74416e+06
-4.71988e+06
-4.72661e+06
-4.73347e+06
-4.71144e+06
-4.72848e+06
-4.77084e+06
-4.64345e+06
-4.53672e+06
-4.50054e+06
-4.31308e+06
-4.24814e+06
-3.9363e+06
-3.57747e+06
-3.37452e+06
-3.15507e+06
-3.00167e+06
-2.70762e+06
-2.39473e+06
-2.19695e+06
-1.85291e+06
-1.57406e+06
-1.51528e+06
-1.51519e+06
-1.48745e+06
-1.33072e+06
-1.26426e+06
-1.17838e+06
-1.05474e+06
-901853
-860254
-885694
-608027
-603255
-693029
-573353
-537174
-506557
-437220
-354437
-263679
-253774
-211420
-140541
-86173.2
-66367.8
-56216
-26559
4470.87
19636.1
32013.5
42852.8
52351.8
59721.1
64451.2
66823.5
66272.2
62025.8
57641
53934.3
49709.6
45780.9
43765.2
42572.9
40391.2
36957.5
33479.6
30571.8
28061.8
25558.2
22940.9
20217.5
18365.8
17081
16371.6
17080.6
15228.7
10829.2
7307.41
5463.53
5238.58
6087.75
7106.52
4174.6
-248.926
-1481.44
-943.703
-601.143
10.225
393.235
-245.55
58.8545
857.44
1421.59
1365.76
1748.86
2543.15
1365.96
-63.6534
-4.8866e+06
-4.7482e+06
-4.72183e+06
-4.72597e+06
-4.73153e+06
-4.70679e+06
-4.72175e+06
-4.76293e+06
-4.62611e+06
-4.51926e+06
-4.48452e+06
-4.29035e+06
-4.20162e+06
-3.91478e+06
-3.55423e+06
-3.32116e+06
-3.11888e+06
-3.01198e+06
-2.72349e+06
-2.42233e+06
-2.21586e+06
-1.87955e+06
-1.58332e+06
-1.50435e+06
-1.51271e+06
-1.4638e+06
-1.32183e+06
-1.25546e+06
-1.18236e+06
-1.0806e+06
-914561
-873479
-912881
-619688
-593794
-710782
-581876
-530784
-518280
-450037
-349542
-252833
-250482
-214673
-143254
-86245.5
-67795.7
-56360.4
-26633.3
2762.87
18429.7
31723.5
42226
51471.3
58803.6
63719.9
66953.7
66719.2
62598
58339.3
54623.6
50171.5
45900.1
43902.5
42848.6
40746.6
37110.7
33666.9
30770.4
28222
25778
23099.5
20285.9
18273.5
16752.7
15676.1
16992.2
15461.5
11000.4
7551.76
5666.96
5453.37
6343.5
7309.54
3644.44
-783.705
-1846.05
-1329.91
-1111.99
-427.257
147.769
-471.108
-114.645
773.008
1368.73
1177.66
1641.9
2569.52
1538.42
173.28
-4.88905e+06
-4.75255e+06
-4.72273e+06
-4.72548e+06
-4.72891e+06
-4.70237e+06
-4.71517e+06
-4.75431e+06
-4.61062e+06
-4.50469e+06
-4.46638e+06
-4.27069e+06
-4.14595e+06
-3.84503e+06
-3.51493e+06
-3.25721e+06
-3.08445e+06
-3.02455e+06
-2.74267e+06
-2.44625e+06
-2.23013e+06
-1.90644e+06
-1.61117e+06
-1.51678e+06
-1.51443e+06
-1.4463e+06
-1.31836e+06
-1.24413e+06
-1.18899e+06
-1.10531e+06
-926102
-879669
-931164
-644409
-594960
-718594
-603352
-519847
-525934
-458260
-349827
-245089
-247236
-217106
-145985
-85448.4
-68833.5
-58412.7
-26818.8
667.843
16602.6
30755.8
41625.1
50904.1
58178.3
63284.3
66764.2
66985.5
62994.1
58973.3
55387.2
50671.7
46104.8
44030.8
43052.3
40997.6
37361.2
33882.6
30956.6
28373.4
25919.8
23313.1
20344.3
18167.5
16371.9
14762.6
16494.4
15860.6
11020
7814.85
5913.91
5786.81
6727.67
7659.8
3259.67
-1248.62
-2192.21
-1733.89
-1602.24
-860.688
-98.0754
-663.815
-293.707
669.317
1312.31
941.39
1475.71
2551.57
1745.36
411.568
-4.89063e+06
-4.75717e+06
-4.72156e+06
-4.72565e+06
-4.72548e+06
-4.69825e+06
-4.70895e+06
-4.74439e+06
-4.59905e+06
-4.49288e+06
-4.44685e+06
-4.25649e+06
-4.08666e+06
-3.77594e+06
-3.47835e+06
-3.21839e+06
-3.0703e+06
-3.01002e+06
-2.76165e+06
-2.46841e+06
-2.24227e+06
-1.93481e+06
-1.64979e+06
-1.54767e+06
-1.52624e+06
-1.43651e+06
-1.31459e+06
-1.23423e+06
-1.18926e+06
-1.12459e+06
-942030
-890775
-940015
-677703
-620913
-723299
-631479
-519951
-524405
-461610
-347857
-245617
-249271
-218070
-144959
-84002.1
-67796.4
-61729.7
-27593.1
-843.601
15014.5
29714
40638.8
50035.3
57742.4
62745.7
66345
67089.7
63342.9
59476.1
56162.9
51219.8
46389.2
44269
43114.1
41171
37643.1
34121
31159.4
28525.6
26065.1
23509.1
20466.4
18003.2
15811.2
13617.3
15744
16197.6
11037.1
8161.82
6216.3
6175.23
7460.93
7943.15
2992.69
-1694.52
-2601.11
-2156.03
-2052.63
-1352.99
-412.386
-847.291
-450.395
583.434
1170.32
685.97
1235.42
2449.51
1879.75
655.844
-4.89141e+06
-4.7616e+06
-4.71894e+06
-4.72644e+06
-4.72116e+06
-4.69475e+06
-4.70303e+06
-4.73381e+06
-4.59315e+06
-4.4832e+06
-4.42676e+06
-4.24379e+06
-4.03304e+06
-3.72902e+06
-3.46887e+06
-3.20218e+06
-3.07227e+06
-2.98959e+06
-2.77299e+06
-2.48815e+06
-2.25563e+06
-1.95341e+06
-1.67799e+06
-1.58501e+06
-1.54792e+06
-1.43163e+06
-1.30761e+06
-1.22566e+06
-1.1817e+06
-1.13648e+06
-968174
-907158
-956937
-730452
-662331
-727450
-650402
-535270
-522667
-464448
-339854
-238415
-250117
-220258
-143815
-82962.5
-63852.4
-63931.4
-28377.6
-1950.45
14265.2
28970.8
39715.6
49417
56883.6
62048.3
66053.9
67022.3
63642.5
59982.7
56776
51787.7
46868
44485.8
43106
41314.9
37914.7
34363.2
31353.8
28655.5
26210
23702.3
20575.2
17829.8
15017.1
12398.1
14671.4
16406.2
11138.5
8505.65
6668.95
6640.59
8358.25
8179.91
2762.45
-2144.59
-2973.88
-2583.06
-2518.97
-1820.19
-792.623
-1018.89
-615.1
495.042
1026.16
397.803
989.013
2325.71
2011.61
915.527
-4.8914e+06
-4.76552e+06
-4.71665e+06
-4.72746e+06
-4.71636e+06
-4.69164e+06
-4.69688e+06
-4.72321e+06
-4.59178e+06
-4.47373e+06
-4.40677e+06
-4.23188e+06
-3.99347e+06
-3.72467e+06
-3.48627e+06
-3.19749e+06
-3.10029e+06
-2.97474e+06
-2.76229e+06
-2.49209e+06
-2.26213e+06
-1.96725e+06
-1.69222e+06
-1.61165e+06
-1.56861e+06
-1.42954e+06
-1.29095e+06
-1.21135e+06
-1.17628e+06
-1.1409e+06
-996979
-924840
-972926
-799414
-705860
-720827
-668464
-553404
-519396
-475400
-331613
-239214
-246428
-223940
-145131
-81310.5
-61888.1
-64260.9
-28071.8
-1508.01
13993.8
28409.5
39074.8
48510
55966
61504.4
65806.4
66874.5
63744.9
60402.2
57317.8
52355.1
47409.2
44683.9
43142.6
41447.9
38164.4
34600
31538.2
28792.1
26337
23888.9
20685.8
17646.7
14001.7
11157.1
13546
16404.5
11379.4
8781.72
7225.66
7479.47
9255.59
8441.66
2661.13
-2374.99
-3297.85
-2985.7
-3003.96
-2362.25
-1125.34
-1159.97
-773.25
365.188
878.704
78.5026
701.518
2154.95
2190.06
1195.85
-4.8907e+06
-4.76917e+06
-4.71605e+06
-4.72778e+06
-4.71236e+06
-4.68915e+06
-4.69049e+06
-4.71336e+06
-4.59397e+06
-4.46405e+06
-4.38981e+06
-4.22138e+06
-3.9701e+06
-3.74774e+06
-3.52695e+06
-3.21495e+06
-3.1333e+06
-2.96571e+06
-2.73504e+06
-2.48435e+06
-2.25442e+06
-1.97874e+06
-1.69044e+06
-1.6151e+06
-1.57902e+06
-1.42123e+06
-1.26591e+06
-1.19232e+06
-1.17339e+06
-1.14703e+06
-1.0239e+06
-939831
-967663
-821278
-729232
-723014
-681470
-568424
-520979
-487256
-324966
-249355
-236852
-224123
-150340
-79038.8
-61477.8
-62574.5
-25277.1
505.904
14126.8
28170.1
38518.4
47553.6
55212.9
61009.2
65592.3
66747.9
63853.7
60762
57726.1
52979.9
48009.6
44805.5
43183.5
41546.4
38405.5
34843.7
31725.3
28930
26466.8
24064.8
20805.1
17458.4
12935.6
9681.44
12289
16176.7
11667.9
9008.65
7928.43
8615.15
10295
8675.36
2711.19
-2437.01
-3519.19
-3394.2
-3551.12
-2860.2
-1414.93
-1289.88
-951.188
209.14
704.549
-263.77
411.752
2028.05
2338.99
1426.63
-4.8893e+06
-4.77255e+06
-4.71718e+06
-4.72603e+06
-4.71041e+06
-4.68796e+06
-4.68358e+06
-4.70377e+06
-4.59617e+06
-4.45681e+06
-4.37823e+06
-4.21261e+06
-3.95811e+06
-3.79469e+06
-3.57513e+06
-3.23516e+06
-3.15632e+06
-2.95933e+06
-2.71106e+06
-2.4825e+06
-2.23978e+06
-1.99479e+06
-1.68025e+06
-1.59804e+06
-1.58163e+06
-1.41169e+06
-1.2396e+06
-1.18285e+06
-1.18057e+06
-1.15458e+06
-1.0394e+06
-953140
-957331
-810198
-737932
-735150
-677254
-576536
-531007
-489547
-319556
-261879
-231406
-219881
-154583
-79240.8
-64952.4
-61243
-16728
5202.23
14907.1
28330.7
38043.3
46694.1
54425.7
60616.4
65285
66611.8
64055.6
61120.5
58089.8
53559.4
48563.5
45016.6
43210.6
41627.2
38614.7
35081.5
31929.8
28982.1
26610.2
24245.2
20948.6
17191.5
11977.1
8179.17
10788.2
15710.5
12003.3
9329.24
8819.8
9931.74
11381.4
8872.36
2820.08
-2313.64
-3710.31
-3823.07
-4024.78
-3310.03
-1728.86
-1387.06
-1097.41
4.76985
419.268
-610.306
100.676
1876.19
2497.04
1650.98
-4.88704e+06
-4.7756e+06
-4.71942e+06
-4.72202e+06
-4.70966e+06
-4.68737e+06
-4.67566e+06
-4.69383e+06
-4.59484e+06
-4.45551e+06
-4.37483e+06
-4.2038e+06
-3.95352e+06
-3.85298e+06
-3.6246e+06
-3.23967e+06
-3.17022e+06
-2.96038e+06
-2.70279e+06
-2.48143e+06
-2.22311e+06
-2.01314e+06
-1.6758e+06
-1.57697e+06
-1.58129e+06
-1.40942e+06
-1.23281e+06
-1.18569e+06
-1.19171e+06
-1.16218e+06
-1.04556e+06
-967398
-953339
-800133
-739984
-742357
-670439
-584583
-547014
-485341
-320335
-269312
-234518
-220633
-162166
-84446.5
-71228.8
-62046.6
-8940.9
11090.8
16224
28781
37784.4
45847.6
53680.2
60211.6
65073.8
66466.5
64241
61465.4
58436.5
54095.1
49098.6
45259.1
43295.4
41580.9
38801.9
35319.9
32058.4
29114.2
26716.3
24425.4
21094.1
17003.8
11022.3
6740.95
9306.76
15059.4
12386.9
9745.84
9886.82
11275.1
12351.9
9046.25
2999.57
-2084.29
-3861.77
-4162.51
-4430.08
-3770.65
-2041.97
-1455.36
-1257.78
-283.664
112.331
-914.708
-215.546
1721.36
2635.28
1804.04
-4.88373e+06
-4.77801e+06
-4.72236e+06
-4.71804e+06
-4.7086e+06
-4.68485e+06
-4.66783e+06
-4.68315e+06
-4.59455e+06
-4.46104e+06
-4.37068e+06
-4.19001e+06
-3.95307e+06
-3.88966e+06
-3.65173e+06
-3.27334e+06
-3.17906e+06
-2.94497e+06
-2.68957e+06
-2.473e+06
-2.21918e+06
-2.03541e+06
-1.68371e+06
-1.55871e+06
-1.57815e+06
-1.40782e+06
-1.23436e+06
-1.19291e+06
-1.20711e+06
-1.1698e+06
-1.04372e+06
-983407
-951269
-797913
-743137
-743097
-667492
-593418
-567056
-482630
-327868
-274853
-242857
-222659
-172958
-89851.9
-77826.8
-64036.6
-2091.41
16571.3
17901.8
29320.7
37659.6
45093.6
52976.9
59887.8
64796.9
66227.7
64475.2
61806.7
58768.8
54603
49640.4
45554.2
43312.6
41596.4
38949
35566.6
32206.7
29144.6
26833.1
24596.8
21233.6
16801.9
10193.7
5624.09
7902.51
14349.9
12756.3
10292
11017.5
12499.1
13143.2
9195.72
3265.77
-1826.8
-3940.88
-4485
-4813.38
-4229.37
-2368.51
-1535.97
-1465.94
-588.836
-207.823
-1181.38
-478.021
1568.29
2745.52
1949.59
-4.87886e+06
-4.7797e+06
-4.72566e+06
-4.71513e+06
-4.70506e+06
-4.68274e+06
-4.66106e+06
-4.67178e+06
-4.59737e+06
-4.46499e+06
-4.35747e+06
-4.17978e+06
-3.95332e+06
-3.89321e+06
-3.63053e+06
-3.27627e+06
-3.17432e+06
-2.92287e+06
-2.66832e+06
-2.46252e+06
-2.22737e+06
-2.04478e+06
-1.67903e+06
-1.56097e+06
-1.57434e+06
-1.39668e+06
-1.2344e+06
-1.20452e+06
-1.22688e+06
-1.17583e+06
-1.04094e+06
-996134
-951386
-799792
-746987
-741616
-670839
-602990
-582204
-483232
-342144
-280086
-250698
-225630
-184754
-94637.7
-81474.7
-64644
4466.78
21724.9
19414.4
29745.8
37491.4
44349
52389.2
59493.8
64431.8
66059.7
64660.1
62138.6
59097
55104.7
50189
45786.5
43318.5
41638.1
39082.9
35818
32360.6
29182.7
26920.7
24748.7
21394.8
16669.1
9421.2
5019.47
6824.56
13661.5
13146.4
10945.4
12071.3
13598.6
13743.5
9423.05
3531.57
-1590.92
-3951.86
-4745.4
-5150.39
-4631.16
-2710.81
-1672.21
-1690.76
-870.636
-502.885
-1376.08
-695.473
1471.37
2835.7
2053.89
-4.87251e+06
-4.78106e+06
-4.72949e+06
-4.71372e+06
-4.69852e+06
-4.68133e+06
-4.65433e+06
-4.65963e+06
-4.60151e+06
-4.47466e+06
-4.35173e+06
-4.17579e+06
-3.95394e+06
-3.87412e+06
-3.57384e+06
-3.2366e+06
-3.15929e+06
-2.90012e+06
-2.64287e+06
-2.43689e+06
-2.22016e+06
-2.04471e+06
-1.67668e+06
-1.58764e+06
-1.57315e+06
-1.3772e+06
-1.22934e+06
-1.22043e+06
-1.24781e+06
-1.17958e+06
-1.03972e+06
-1.00129e+06
-953211
-805910
-751210
-740028
-677243
-616097
-588162
-483621
-358357
-284996
-255111
-228249
-194844
-101690
-82388.9
-64887.1
7696.11
25302.7
20745.6
30198.6
37040.7
43508.1
51824.2
59087
64116.7
65877.8
64857.8
62439
59448
55590.5
50609.1
46034.9
43370.4
41655.9
39236.4
36039
32496.2
29236.6
26977.2
24901.8
21563.8
16639
8844.03
4489.35
5874.95
13053.9
13576.3
11853.2
13094.4
14485.1
14214.7
9512.81
3671.31
-1322.4
-3888.25
-4973.26
-5477.36
-4968.42
-3045.71
-1824.19
-1892.34
-1166.98
-782.576
-1538.1
-825.289
1426.8
2932.48
2111.33
-4.86535e+06
-4.78296e+06
-4.73383e+06
-4.7128e+06
-4.69148e+06
-4.67782e+06
-4.64761e+06
-4.65002e+06
-4.60614e+06
-4.48937e+06
-4.35601e+06
-4.17769e+06
-3.95978e+06
-3.84474e+06
-3.51571e+06
-3.21567e+06
-3.17183e+06
-2.86196e+06
-2.61324e+06
-2.41553e+06
-2.17412e+06
-2.02323e+06
-1.6802e+06
-1.62134e+06
-1.57401e+06
-1.35617e+06
-1.22246e+06
-1.23723e+06
-1.27029e+06
-1.18346e+06
-1.03975e+06
-1.00681e+06
-957993
-815777
-756829
-741051
-683684
-632231
-587261
-480657
-370203
-290240
-257142
-230371
-202791
-111034
-82407.6
-66746.3
5601.94
26438.3
21525
30335.2
36486.1
42680.9
51213.3
58749.9
63728.4
65843.8
65013
62730.4
59868.2
55933.3
50953
46250.7
43358
41667.8
39366.8
36243.6
32634.6
29273.7
27024
25018.2
21792.6
16945.1
8530.25
3808.35
5016.71
12578.6
13992.7
12879.5
14105.4
15251.6
14450.5
9514.47
3763.49
-1039.63
-3817.13
-5180.75
-5727.57
-5303.55
-3344.9
-1999.36
-2058.2
-1450.63
-1035.97
-1638.16
-910.879
1453.3
3054.14
2150.5
-4.85851e+06
-4.78462e+06
-4.7383e+06
-4.71183e+06
-4.68557e+06
-4.66894e+06
-4.64273e+06
-4.64439e+06
-4.61138e+06
-4.50202e+06
-4.36503e+06
-4.1879e+06
-3.97037e+06
-3.80841e+06
-3.49027e+06
-3.24772e+06
-3.18993e+06
-2.82805e+06
-2.59769e+06
-2.37817e+06
-2.11087e+06
-2.00299e+06
-1.68895e+06
-1.6537e+06
-1.57866e+06
-1.34305e+06
-1.21986e+06
-1.24992e+06
-1.28865e+06
-1.18818e+06
-1.04564e+06
-1.01272e+06
-965189
-828642
-763631
-744370
-691863
-649908
-584340
-476398
-377565
-296667
-258482
-232996
-209591
-122075
-83592.1
-68277.8
1315.99
25134.7
21874.4
30324
35828.2
41785.6
50622.2
58455.4
63444
65891.6
65115.6
62958.3
60245.3
56253.9
51261.4
46375.4
43329.1
41665.5
39460.8
36449.1
32795
29338.3
27053.9
25134.4
22065.4
17429
8724.09
3159.58
4263.81
12155.5
14504.5
13936
14800.5
15800.3
14483.4
9483.47
3982.32
-825.949
-3776.9
-5369.83
-5973.91
-5531.05
-3581.9
-2171.36
-2230.29
-1685.09
-1207.12
-1647.09
-962.585
1500.49
3179.13
2157.07
-4.85335e+06
-4.785e+06
-4.74221e+06
-4.7108e+06
-4.68161e+06
-4.65645e+06
-4.6366e+06
-4.63665e+06
-4.61404e+06
-4.51217e+06
-4.37627e+06
-4.20459e+06
-3.9921e+06
-3.78082e+06
-3.47821e+06
-3.31284e+06
-3.22279e+06
-2.82322e+06
-2.59614e+06
-2.34185e+06
-2.07389e+06
-1.97523e+06
-1.70957e+06
-1.68491e+06
-1.59294e+06
-1.33369e+06
-1.22081e+06
-1.25957e+06
-1.30222e+06
-1.19261e+06
-1.06315e+06
-1.02041e+06
-974003
-845245
-772393
-750193
-704089
-666611
-582908
-471692
-384405
-306486
-259354
-236291
-215560
-132786
-85633.8
-68605.2
-3970.47
22430.6
22041.1
30077.6
35266
41016.4
50088.2
58219.8
63340.8
65944.4
65195.3
63159.3
60532.2
56551.3
51487.4
46449.2
43274.2
41639.8
39601.8
36710.4
32968.1
29445.5
27126.6
25237
22478.9
17964.2
9269.11
2910.2
3797.37
11961.1
15070.5
14988.2
15366.8
16087.1
14377.6
9390.93
4103.13
-487.486
-3703.1
-5501.81
-6141.21
-5699.09
-3700.13
-2351.31
-2401.99
-1789.02
-1276.07
-1643.34
-955.408
1583.57
3303.36
2111.17
-4.85039e+06
-4.78272e+06
-4.7445e+06
-4.70991e+06
-4.6776e+06
-4.6455e+06
-4.62284e+06
-4.62906e+06
-4.61513e+06
-4.51986e+06
-4.39247e+06
-4.22979e+06
-4.02572e+06
-3.77302e+06
-3.46361e+06
-3.36555e+06
-3.27695e+06
-2.84606e+06
-2.59358e+06
-2.31105e+06
-2.06711e+06
-1.93815e+06
-1.73225e+06
-1.70555e+06
-1.62891e+06
-1.34097e+06
-1.22789e+06
-1.26758e+06
-1.31237e+06
-1.19221e+06
-1.06715e+06
-1.0157e+06
-977981
-865099
-782487
-758322
-719651
-681034
-580454
-467913
-393921
-318604
-260688
-240793
-220820
-143475
-87063.7
-65530.6
-8121.29
18700.4
22265.9
29757
34794.3
40306.3
49559.1
58089.6
63356.5
65980.8
65212.7
63231.8
60793.4
56831.3
51684.5
46522.6
43185
41615.3
39836
36941.4
33178.9
29556.4
27209.7
25377.3
23016.6
18701
10135.8
3365.31
3531.77
12041.7
15511.1
15999.1
15795.3
16335.7
14113.2
9355.84
4332.82
-190.552
-3646.03
-5550.86
-6269.94
-5812.37
-3729.56
-2537.29
-2547.21
-1760.21
-1172.74
-1621.42
-884.574
1713.53
3441.63
2052.45
-4.84803e+06
-4.77791e+06
-4.74464e+06
-4.70878e+06
-4.67439e+06
-4.63698e+06
-4.60605e+06
-4.61826e+06
-4.60708e+06
-4.5202e+06
-4.41306e+06
-4.26682e+06
-4.06806e+06
-3.76311e+06
-3.44885e+06
-3.39334e+06
-3.32681e+06
-2.89002e+06
-2.57274e+06
-2.28591e+06
-2.07674e+06
-1.90639e+06
-1.73556e+06
-1.71504e+06
-1.67911e+06
-1.35905e+06
-1.24493e+06
-1.28299e+06
-1.32302e+06
-1.18444e+06
-1.05239e+06
-1.00959e+06
-975124
-882926
-788905
-761858
-731870
-689625
-579195
-466537
-403219
-330382
-258378
-244273
-228154
-155263
-87470.1
-58904.7
-10259.6
15334.1
22506.4
29449.3
34420.3
39868.4
49190.4
57971.4
63243.9
65920.4
65080.6
63331.6
61072
57090.3
52013.6
46561.1
43030.6
41547
39990.8
37292.3
33419.5
29691.9
27268.1
25562.6
23695
19540.2
11197.8
4309.59