/*--------------------------------*- C++ -*----------------------------------*\
| =========                 |                                                 |
| \\      /  F ield         | foam-extend: Open Source CFD                    |
|  \\    /   O peration     | Version:     5.0                                |
|   \\  /    A nd           | Web:         http://www.foam-extend.org         |
|    \\/     M anipulation  |                                                 |
\*---------------------------------------------------------------------------*/
FoamFile
{
    version     2.0;
    format      ascii;
    class       surfaceScalarField;
    location    "0.095";
    object      phi;
}
// * * * * * * * * * * * * * * * * * * * * * * * * * * * * * * * * * * * * * //

dimensions      [0 3 -1 0 0 0 0];

internalField   nonuniform List<scalar> 
7860
(
-1.258
1.263
-1.04574
-0.212303
-0.680934
-0.364849
-0.536018
-0.144954
-0.475071
-0.0609848
-0.434769
-0.0403392
-1.06191
0.627104
-2.98033
1.91837
-4.25298
1.27259
-5.87572
1.6227
-7.00622
1.13048
-6.31502
-0.691224
-7.3646
1.04956
-9.46651
2.1019
-13.0473
3.58073
-15.4659
2.41854
-14.4974
-0.968498
-13.1683
-1.32917
-11.2392
-1.92917
-8.24357
-2.99569
-5.99062
-2.25299
-5.371
-0.619665
-5.96249
0.591459
-4.96215
-1.00036
-3.38558
-1.57658
-2.17289
-1.21271
1.02999
-3.20288
2.87873
-1.84875
2.95308
-0.074349
2.48405
0.469023
2.63202
-0.147976
2.61051
0.02151
1.77114
0.839373
0.553633
1.21751
-0.125207
0.678842
-0.404287
0.279085
-0.668508
0.264228
-1.08211
0.41361
-1.35756
0.275459
-1.30612
-0.0514251
-1.19749
-0.108617
-1.42125
0.223769
-1.59665
0.175417
-1.74611
0.149473
-1.85213
0.10604
-1.94463
0.0925078
-2.0256
0.0809877
-2.07939
0.0538026
-2.05582
-0.0235514
-1.86578
-0.190033
-1.65286
-0.212902
-1.496
-0.156844
-1.36149
-0.134496
-1.15152
-0.209953
-0.960368
-0.191131
-0.851336
-0.109014
-0.715789
-0.13553
-0.581186
-0.134585
-0.478753
-0.102416
-0.380073
-0.0986641
-0.335684
-0.0443728
-0.264801
-0.0708693
-0.228849
-0.0359383
-0.194992
-0.0338461
-0.155228
-0.0397527
-0.116261
-0.0389583
-0.0674928
-0.0487599
-0.0493838
-0.0181017
-0.030327
-0.0190506
-0.0119348
-0.0183866
-0.00466147
-0.00726864
-6.83048e-05
-0.00458917
0.00875071
-0.00881594
0.0342037
-0.0254509
0.0706101
-0.0364054
0.110686
-0.0400762
0.145288
-0.0346028
0.162492
-0.0172048
0.16153
0.000958938
0.150713
0.0108139
0.135223
0.0154864
0.126768
0.00845102
0.154243
-0.027479
0.207361
-0.0531237
0.23439
-0.027034
0.2146
0.0197843
0.169445
0.0451495
0.126871
0.04257
0.100538
0.0263303
0.0907675
0.00976814
0.0859066
0.00485998
0.0746168
0.0112891
0.0430291
0.0315874
0.0138405
0.0291878
0.00416589
0.00967363
0.00570125
-0.00153707
0.0118461
-0.00614722
0.00673745
0.00510579
-0.0128307
0.0195651
-0.000932293
-1.05277
2.32072
-0.876679
-0.388482
-0.471396
-0.770199
-0.224258
-0.392161
-0.330537
0.0452232
-0.834441
0.463489
-2.59794
2.39052
-4.50007
3.82041
-3.38784
0.160292
-3.47712
1.71192
-6.78393
4.43725
-8.3681
0.89289
-8.28384
0.965249
-9.96483
3.78283
-12.7403
6.35611
-13.2054
2.88358
-14.1688
-0.00513621
-12.4399
-3.05811
-7.84299
-6.5262
-5.0275
-5.81125
-4.22263
-3.05792
-1.88241
-2.95992
0.999887
-2.29087
1.42965
-1.43015
1.00366
-1.15061
1.75262
-1.96167
5.10912
-6.55939
7.15511
-3.89475
7.22094
-0.140176
6.19987
1.49009
4.93777
1.11412
3.9431
1.01617
3.56788
1.2146
3.63901
1.14639
3.90765
0.410207
4.21932
-0.0325719
4.32436
0.159205
4.24072
0.497267
4.20681
0.309379
3.84562
0.309786
3.00712
0.729901
1.87303
1.35789
0.690014
1.35846
-0.12824
0.967755
-0.784193
0.762021
-1.33106
0.6394
-1.8079
0.557858
-2.24928
0.495206
-2.55106
0.278255
-2.6159
-0.125161
-2.5011
-0.327674
-2.37987
-0.278047
-2.29104
-0.22329
-2.20294
-0.298022
-2.0278
-0.366237
-1.8191
-0.317679
-1.60516
-0.349433
-1.41476
-0.324959
-1.23792
-0.279222
-1.13335
-0.203205
-0.981297
-0.196397
-0.861
-0.191141
-0.755326
-0.141589
-0.637993
-0.151158
-0.530144
-0.147583
-0.387807
-0.181279
-0.302225
-0.134326
-0.231185
-0.0891295
-0.1462
-0.104024
-0.114145
-0.0504319
-0.0943516
-0.0270541
-0.0610805
-0.0378538
-0.0270217
-0.0428702
0.0291365
-0.0816064
0.106989
-0.114258
0.194628
-0.127716
0.270694
-0.110673
0.317573
-0.0640885
0.331621
-0.0130963
0.315747
0.0266809
0.300078
0.0311461
0.320077
-0.0115578
0.377473
-0.0848854
0.454812
-0.130475
0.484846
-0.0570795
0.453816
0.0508034
0.364637
0.134321
0.266792
0.140408
0.188499
0.104619
0.141704
0.0565604
0.146338
0.000225079
0.132849
0.0247763
0.0902436
0.0741915
0.0448823
0.0745466
0.0136603
0.0408921
0.00381883
0.0082996
0.0023451
-0.00467946
-0.0168285
0.0242738
-0.0468171
0.0495491
-0.00331156
-0.340196
2.66588
-0.183746
-0.544998
0.0658261
-1.01983
0.196562
-0.522961
0.0822418
0.159474
-0.333186
0.87885
-1.1573
3.21456
-1.10766
3.77071
-0.724429
-0.222989
-2.17564
3.16309
-4.10541
6.36697
-5.1442
1.93163
-4.75916
0.580175
-3.75729
2.78093
-2.23635
4.83516
-2.13081
2.778
-5.3791
3.24312
-8.0381
-0.399153
-8.41438
-6.14996
-5.81587
-8.4098
-2.73547
-6.13836
0.112057
-5.80749
3.07568
-5.25452
3.63357
-1.98806
2.38802
0.0949231
1.68718
-1.26084
3.85753
-8.72975
6.09941
-6.13664
6.80921
-0.849981
5.89315
2.40614
4.31944
2.68783
2.52548
2.81013
2.1305
1.60957
3.6241
-0.347205
5.34479
-1.31047
5.98519
-0.672968
6.31691
-0.172506
6.5335
0.280692
6.21848
0.62441
5.73795
0.790329
4.93389
1.53398
3.83311
2.45869
2.70823
2.48336
1.70046
1.97555
0.718428
1.74408
-0.159434
1.51729
-0.829937
1.22838
-1.53158
1.19687
-2.0482
0.794897
-2.38008
0.206749
-2.53568
-0.172042
-2.57018
-0.243517
-2.57206
-0.221383
-2.55858
-0.311468
-2.48411
-0.440667
-2.2778
-0.523963
-2.11216
-0.515037
-1.93633
-0.500757
-1.7538
-0.46172
-1.59315
-0.363833
-1.46859
-0.320933
-1.36381
-0.295901
-1.1958
-0.309576
-1.05039
-0.296548
-0.897356
-0.300596
-0.753268
-0.325351
-0.605701
-0.28188
-0.440244
-0.254574
-0.351809
-0.192448
-0.273694
-0.128538
-0.193608
-0.107133
-0.145449
-0.0860068
-0.102144
-0.0861707
-0.0494918
-0.134257
0.0363215
-0.200071
0.141704
-0.233101
0.240007
-0.208979
0.321211
-0.145298
0.359409
-0.0513016
0.349988
0.0360941
0.358585
0.0225395
0.405845
-0.0588281
0.471124
-0.150175
0.534665
-0.194029
0.539297
-0.0617225
0.452615
0.137476
0.332101
0.254826
0.194757
0.277746
0.0936195
0.205753
0.0624637
0.0877136
0.0330285
0.0296591
0.0378577
0.0199457
0.0464988
0.0655491
0.027148
0.0938948
0.000955065
0.0670811
-0.0177582
0.0270077
-0.0318226
0.00937867
-0.051212
0.0436577
-0.0632078
0.0615405
-0.0174251
0.0875052
2.58334
0.264518
-0.722066
0.448136
-1.2035
0.517251
-0.592144
0.460156
0.216499
0.253587
1.08536
0.091523
3.37658
-0.0406597
3.90285
-0.739111
0.475422
-1.05553
3.47948
-0.52273
5.83414
-0.728664
2.13754
-0.418808
0.270298
0.790422
1.57168
2.14361
3.48195
2.40788
2.51371
1.20589
4.44508
-1.62927
2.43598
-4.23677
-3.5425
-4.40583
-8.24079
-1.9864
-8.55783
1.54449
-9.33841
3.85715
-7.5672
2.15167
-0.282587
-0.265472
2.51205
-0.586918
-0.939408
-0.654242
-8.66244
1.08255
-7.87344
3.22951
-2.99696
3.04266
2.59298
2.04634
3.68415
0.488422
4.36805
-0.0332984
2.1313
2.33501
-2.71551
5.04877
-4.02423
6.26382
-1.88801
6.43174
-0.340418
6.21456
0.497883
6.06372
0.775271
5.54629
1.30777
5.06277
2.01751
4.51971
3.00176
3.68311
3.31997
2.69807
2.96061
1.70978
2.73239
0.758498
2.46858
-0.267919
2.25482
-0.963509
1.89248
-1.48492
1.31633
-1.9642
0.686051
-2.33836
0.202154
-2.56879
-0.0130625
-2.67271
-0.117434
-2.72435
-0.259797
-2.70229
-0.462699
-2.61494
-0.611281
-2.45012
-0.679819
-2.27748
-0.673366
-2.10452
-0.63466
-1.93726
-0.531058
-1.79682
-0.46136
-1.67555
-0.417143
-1.53874
-0.44637
-1.37381
-0.461455
-1.16047
-0.513922
-1.01058
-0.475224
-0.854302
-0.438146
-0.698132
-0.410733
-0.581835
-0.308735
-0.448258
-0.262106
-0.315585
-0.2398
-0.240792
-0.160795
-0.205287
-0.121671
-0.145897
-0.193645
-0.0592063
-0.286762
0.0405087
-0.332817
0.15709
-0.325564
0.252771
-0.240984
0.314488
-0.113024
0.344183
0.00639125
0.363107
0.00360827
0.4141
-0.109831
0.483814
-0.219898
0.541483
-0.251709
0.494127
-0.0143759
0.367861
0.263733
0.200141
0.42254
0.0390925
0.438789
-0.0804918
0.325334
-0.143591
0.150811
-0.151696
0.0377627
-0.101992
-0.0297588
-0.0438458
0.00740139
-0.0441779
0.0942246
-0.0554394
0.0783391
-0.0666273
0.038191
-0.0819041
0.0246496
-0.0901099
0.0518585
-0.103017
0.0744432
-0.0179578
0.338105
2.25021
0.493165
-0.877174
0.717409
-1.4278
0.801338
-0.676142
0.745118
0.272649
0.666923
1.16349
0.762395
3.28106
0.606088
4.05912
-0.676492
1.75797
-0.593616
3.39656
0.803983
4.4365
0.897278
2.04422
1.01943
0.148121
2.16489
0.426204
3.45003
2.19679
3.87021
2.09351
4.46569
3.84958
3.71684
3.18479
1.79081
-1.6165
1.26699
-7.71701
2.48457
-9.77544
3.91285
-10.7667
4.59405
-8.24841
2.87508
1.43636
1.24051
4.14661
0.732648
-0.431566
-2.10284
-5.82696
-3.51278
-6.46353
-1.44787
-5.06187
0.561088
0.584014
0.830397
3.41483
1.21712
3.98133
2.49415
0.85427
3.15969
-3.38104
4.0426
-4.90713
4.64545
-2.49084
4.64737
-0.34233
4.43907
0.706205
4.1561
1.05826
4.27541
1.18848
4.71297
1.57996
4.81912
2.89563
4.12074
4.01838
3.14909
3.93228
2.38167
3.49982
1.52092
3.32935
0.584007
3.19175
-0.194264
2.67077
-0.827477
1.94956
-1.44116
1.29976
-2.01771
0.778728
-2.41425
0.383498
-2.62491
0.0932571
-2.72582
-0.158857
-2.74749
-0.441003
-2.70807
-0.65067
-2.59007
-0.797789
-2.4447
-0.818713
-2.29882
-0.780514
-2.14062
-0.689227
-2.00789
-0.59407
-1.88192
-0.543098
-1.75351
-0.574754
-1.59467
-0.620279
-1.40708
-0.7015
-1.18681
-0.695484
-1.02776
-0.597183
-0.887388
-0.551093
-0.704502
-0.491612
-0.522729
-0.443872
-0.409536
-0.352986
-0.337787
-0.232539
-0.292056
-0.167399
-0.24297
-0.24273
-0.163244
-0.366487
-0.0533092
-0.442754
0.0653364
-0.444213
0.181793
-0.357445
0.265076
-0.196312
0.308052
-0.0365913
0.344314
-0.0326609
0.389434
-0.154959
0.451826
-0.2823
0.463953
-0.263845
0.391267
0.0583023
0.218151
0.436841
0.0250633
0.615621
-0.152607
0.616453
-0.281236
0.45396
-0.332138
0.20171
-0.327523
0.0331467
-0.239258
-0.118024
-0.146124
-0.0857336
-0.114792
0.0628903
-0.117894
0.0814378
-0.12483
0.0451229
-0.138
0.0378144
-0.14621
0.0600629
-0.153581
0.0818102
-0.0233934
0.466496
1.78869
0.591472
-1.00219
0.768623
-1.60501
0.994771
-0.902358
1.09375
0.173603
1.11465
1.14254
1.38125
3.01441
1.42017
4.02017
0.471338
2.70677
0.566306
3.30156
1.46634
3.53643
1.87889
1.63165
1.74361
0.283372
2.55468
-0.384883
4.54734
0.204109
5.22973
1.41109
5.34351
3.73579
5.68836
2.83992
5.57581
-1.50397
3.9523
-6.09352
2.87431
-8.69747
3.33225
-11.2247
3.32355
-8.23972
2.75888
2.00102
2.32085
4.58462
2.05617
-0.166902
0.0072537
-3.77806
-2.12724
-4.32907
-1.31932
-5.86982
-0.415373
-0.31994
0.85359
2.14586
2.47337
2.36155
3.80552
-0.47788
4.59612
-4.17163
4.25153
-4.56254
3.00038
-1.23968
2.65488
0.00320019
2.85176
0.509343
3.21823
0.691808
3.2079
1.19883
3.62557
1.16231
4.54679
1.97443
4.32156
4.24362
3.58026
4.67359
2.84662
4.23348
2.20871
3.96727
1.45603
3.94444
0.554033
3.57279
-0.140817
2.64443
-0.824043
1.983
-1.55579
1.51049
-2.12175
0.949482
-2.4542
0.425734
-2.60989
-0.00313892
-2.66909
-0.381776
-2.59988
-0.719855
-2.55219
-0.845453
-2.47098
-0.899897
-2.34894
-0.902522
-2.22085
-0.817301
-2.10139
-0.713509
-1.98283
-0.661636
-1.86669
-0.690876
-1.70426
-0.782687
-1.51805
-0.887702
-1.35782
-0.855703
-1.1688
-0.786191
-0.971359
-0.74852
-0.778912
-0.684051
-0.611823
-0.610955
-0.503228
-0.461575
-0.436328
-0.299436
-0.374051
-0.229672
-0.320512
-0.296267
-0.239004
-0.447995
-0.138833
-0.542926
-0.0159884
-0.56706
0.105798
-0.479235
0.207335
-0.297855
0.271442
-0.100704
0.30807
-0.0692956
0.35768
-0.204577
0.390945
-0.315573
0.383349
-0.256257
0.259427
0.182217
0.0486076
0.647653
-0.180976
0.845199
-0.35141
0.786882
-0.452094
0.554642
-0.503223
0.252837
-0.460518
-0.00955934
-0.356716
-0.221827
-0.256129
-0.186321
-0.199903
0.00666237
-0.187135
0.0686669
-0.187717
0.0457
-0.194661
0.0447539
-0.192333
0.0577302
-0.181605
0.0710783
-0.0333493
0.535459
1.25822
0.750352
-1.21713
1.01557
-1.87028
1.26447
-1.15132
1.38732
0.0506877
1.56552
0.964301
2.02056
2.55933
2.42374
3.61696
1.75311
3.37737
1.63164
3.42299
2.37731
2.79073
3.15184
0.857103
3.27948
0.155703
3.79442
-0.899843
5.40856
-1.41005
6.5455
0.274132
6.88342
3.39785
7.36893
2.35439
7.80529
-1.94035
6.03147
-4.31972
3.2168
-5.88282
0.879885
-8.88777
0.899973
-8.25983
2.80497
0.0960034
3.33873
4.05084
2.8093
0.36251
-1.51514
0.546359
-3.51323
-2.33101
-0.532236
-8.85083
2.61644
-3.46863
4.89726
-0.134955
5.09389
2.16492
5.01219
-0.396186
5.1657
-4.32514
4.36062
-3.75744
2.83204
0.288911
1.82283
1.01244
1.97675
0.355441
2.34716
0.321424
1.94194
1.60408
2.23723
0.867047
3.13014
1.08155
3.85958
3.5142
3.7892
4.74399
3.27056
4.75213
2.7734
4.46444
2.12594
4.59191
1.35698
4.34177
0.579236
3.42218
-0.20816
2.77041
-1.04837
2.35072
-1.71504
1.61617
-2.13361
0.844333
-2.35373
0.217
-2.45637
-0.279102
-2.47864
-0.697564
-2.44783
-0.876236
-2.39785
-0.949859
-2.27502
-1.02533
-2.20136
-0.890936
-2.10832
-0.806534
-1.99535
-0.774583
-1.87991
-0.806304
-1.69148
-0.971094
-1.54346
-1.03572
-1.38693
-1.01222
-1.21913
-0.953976
-1.05417
-0.913475
-0.871512
-0.866698
-0.741358
-0.741102
-0.604188
-0.598739
-0.489243
-0.414377
-0.443597
-0.275316
-0.387134
-0.352728
-0.307522
-0.527608
-0.210892
-0.639557
-0.0961366
-0.681818
0.0378706
-0.613246
0.152143
-0.412132
0.224312
-0.172878
0.27633
-0.12132
0.311112
-0.239365
0.33156
-0.336028
0.277499
-0.202203
0.114994
0.344715
-0.143237
0.905878
-0.394983
1.09694
-0.536173
0.928068
-0.605977
0.624443
-0.609759
0.256618
-0.554209
-0.0651097
-0.471803
-0.304234
-0.368349
-0.289776
-0.297593
-0.0640955
-0.260164
0.031235
-0.241066
0.0265985
-0.240743
0.0444247
-0.224247
0.0412297
-0.188913
0.0357405
-0.0520126
0.586256
0.676943
0.893316
-1.52423
1.1754
-2.15241
1.45791
-1.43388
1.65651
-0.147961
1.95805
0.662717
2.58595
1.9314
3.2041
2.99879
3.1097
3.47175
3.15773
3.37493
3.63701
2.31143
4.38341
0.110681
4.82211
-0.283016
5.41027
-1.48803
6.52058
-2.52037
7.33377
-0.539071
7.84282
2.88879
8.46202
1.73518
8.46942
-1.94776
6.30329
-2.15359
3.48887
-3.06842
1.66834
-7.06726
1.3709
-7.96241
2.48508
-1.0182
3.14363
3.39227
4.30673
-0.800599
3.92954
0.92353
2.8495
-1.25099
2.57624
-8.57759
4.34633
-5.23873
5.53439
-1.32301
5.38123
2.31808
5.59155
-0.606507
5.65423
-4.38781
4.5922
-2.6954
3.12242
1.75871
2.19106
1.94382
1.88501
0.66151
1.82127
0.385187
1.01112
2.41426
1.05878
0.819431
2.16311
-0.0227565
2.7234
2.95394
2.87134
4.59607
3.04878
4.5747
3.01757
4.49566
2.80048
4.80902
2.11232
5.02993
1.30197
4.23254
0.631971
3.44042
-0.0870467
3.06975
-0.879722
2.40887
-1.50316
1.46779
-1.87751
0.59137
-2.09816
-0.0584258
-2.21067
-0.58503
-2.25217
-0.834712
-2.24162
-0.960391
-2.23134
-1.03559
-2.14585
-0.976408
-2.05682
-0.895537
-1.95711
-0.874281
-1.80935
-0.954041
-1.68752
-1.09291
-1.55532
-1.16791
-1.40223
-1.1653
-1.24441
-1.11178
-1.09548
-1.0624
-0.973649
-0.988524
-0.811096
-0.903649
-0.669888
-0.739942
-0.578457
-0.505805
-0.498871
-0.354899
-0.435832
-0.415766
-0.358231
-0.605208
-0.28026
-0.71753
-0.171908
-0.790172
-0.0362178
-0.74894
0.0912297
-0.539584
0.182649
-0.264303
0.234913
-0.173589
0.272795
-0.277254
0.253941
-0.31718
0.171136
-0.119404
-0.0361464
0.551991
-0.303738
1.17346
-0.538373
1.33157
-0.678577
1.06827
-0.697315
0.64318
-0.665662
0.224963
-0.59928
-0.131491
-0.52263
-0.380884
-0.452907
-0.3595
-0.379333
-0.13767
-0.313923
-0.0341787
-0.283784
-0.00354413
-0.277189
0.0378248
-0.248863
0.0128977
-0.200944
-0.0121829
-0.0741798
0.597767
0.0841609
0.894367
-1.82086
1.26288
-2.52097
1.63452
-1.80557
1.84919
-0.362672
2.29989
0.211982
3.07313
1.15812
3.76987
2.30203
4.02847
3.21313
4.35474
3.04864
4.62589
2.04025
5.17292
-0.436372
5.80411
-0.914228
6.43235
-2.11627
7.09976
-3.1878
7.85492
-1.29425
8.45419
2.28951
9.40599
0.783363
9.39898
-1.94076
4.46719
2.77818
0.955383
0.443372
0.39196
-6.50386
-1.44778
-6.1227
1.28784
-3.75385
4.40959
0.270491
5.66265
-2.05367
5.53394
1.05222
5.32186
-1.03892
5.40278
-8.65851
6.58253
-6.41848
6.52597
-1.26644
5.75961
3.08444
5.54204
-0.388935
5.63488
-4.48065
4.64225
-1.70276
3.531
2.86997
2.99506
2.47977
2.54108
1.1155
2.41849
0.507796
2.28741
2.54536
1.5432
1.56367
0.61289
0.907582
1.05137
2.51549
1.49252
4.15494
1.63415
4.43309
2.23542
3.89441
2.65224
4.39221
2.56006
5.12212
1.99636
4.79626
1.38586
4.05093
0.713906
3.74172
-0.0343274
3.15711
-0.720307
2.15379
-1.2576
1.12868
-1.60855
0.292544
-1.83813
-0.355428
-1.95958
-0.713244
-2.02143
-0.898524
-2.04683
-1.01016
-2.02656
-0.996661
-1.96351
-0.958571
-1.88422
-0.953554
-1.77838
-1.05987
-1.65535
-1.21592
-1.52398
-1.29927
-1.37341
-1.31586
-1.22352
-1.26167
-1.10063
-1.18529
-0.978778
-1.11037
-0.840965
-1.04146
-0.706316
-0.874587
-0.607462
-0.604657
-0.530256
-0.432104
-0.46951
-0.47651
-0.403303
-0.671416
-0.34599
-0.774844
-0.263045
-0.87312
-0.117822
-0.894166
0.0249985
-0.682409
0.128672
-0.367982
0.200313
-0.245235
0.221667
-0.298614
0.187943
-0.283462
0.0707227
-0.00219036
-0.166927
0.789636
-0.452355
1.45889
-0.643835
1.52305
-0.743429
1.16786
-0.747367
0.647116
-0.679292
0.156887
-0.612596
-0.198188
-0.550762
-0.442719
-0.495912
-0.41435
-0.420259
-0.213325
-0.344606
-0.109834
-0.31233
-0.0358243
-0.306942
0.0324305
-0.274072
-0.0199777
-0.221154
-0.0651054
-0.0947914
0.603089
-0.513942
0.912216
-2.13002
1.29612
-2.90492
1.73588
-2.24537
2.01793
-0.644762
2.54109
-0.311209
3.43287
0.266314
4.16998
1.56491
4.65678
2.72631
5.17505
2.53035
5.38632
1.82896
5.68575
-0.735814
6.27757
-1.50607
6.93211
-2.77083
7.0942
-3.3499
7.61976
-1.81983
8.48532
1.42395
9.79039
-0.521719
8.96365
-1.11403
3.18742
8.55441
-1.20658
4.83735
-4.32305
-3.38742
-6.7206
-3.72518
-3.17578
-7.29871
2.86066
-5.76598
6.47399
-5.66701
6.184
1.3422
6.8491
-1.70403
6.9562
-8.76561
6.92643
-6.38872
6.32416
-0.664177
5.90534
3.50326
5.7987
-0.282288
5.52721
-4.20916
3.87766
-0.0532062
2.66121
4.08643
2.74045
2.40055
2.38437
1.4716
2.39175
0.500426
2.55162
2.38551
2.13608
1.97923
1.09819
1.94549
0.273453
3.34025
0.249457
4.17896
0.599236
4.08334
0.905888
3.58778
1.67847
3.61965
2.42902
4.37158
2.34172
4.88356
1.84754
4.54512
1.31431
4.27496
0.786632
3.6848
0.0825612
2.85787
-0.619333
1.83059
-1.07433
0.747556
-1.40578
-0.0239554
-1.61975
-0.499259
-1.74284
-0.775418
-1.82396
-0.929027
-1.85323
-0.967371
-1.83295
-0.978831
-1.77092
-1.01557
-1.68851
-1.14227
-1.57808
-1.32634
-1.45661
-1.42072
-1.28555
-1.48691
-1.14165
-1.40556
-1.06904
-1.25789
-0.972527
-1.20688
-0.852899
-1.16108
-0.732804
-0.994678
-0.618192
-0.719265
-0.549601
-0.500693
-0.493064
-0.533046
-0.442092
-0.722388
-0.42557
-0.791367
-0.364858
-0.933835
-0.217831
-1.0412
-0.0555643
-0.84468
0.0818312
-0.505382
0.155899
-0.319307
0.174434
-0.317154
0.124231
-0.233264
-0.0221294
0.144164
-0.302948
1.07045
-0.559775
1.71571
-0.725435
1.6887
-0.785354
1.22778
-0.745749
0.607509
-0.668757
0.0798946
-0.580293
-0.286652
-0.528314
-0.494697
-0.491359
-0.451305
-0.426789
-0.277896
-0.362926
-0.1737
-0.338171
-0.0605838
-0.331547
0.0258006
-0.300689
-0.0508406
-0.247009
-0.118791
-0.115427
0.613531
-1.12249
0.875583
-2.3921
1.28035
-3.30972
1.81679
-2.78185
2.10844
-0.936435
2.69761
-0.900413
3.64843
-0.684528
4.44059
0.772726
5.03596
2.13093
5.61755
1.94874
5.80194
1.64455
5.89774
-0.831631
6.37485
-1.98319
7.23097
-3.62696
5.7921
-1.91104
6.80604
-2.83378
10.3501
-2.12014
10.5307
-0.702299
5.86795
3.5487
0.0500641
14.3723
-4.08099
8.96839
-8.50351
1.03506
-7.40705
-4.82168
-4.46178
-10.244
0.49602
-10.7238
4.57643
-9.74745
5.39138
0.527244
7.80799
-4.12065
7.83202
-8.78965
6.76525
-5.32194
5.85592
0.24515
5.25238
4.10679
5.32528
-0.35518
5.49806
-4.38194
3.51128
1.93358
2.08063
5.51708
2.36432
2.11687
2.2066
1.62934
2.18389
0.523142
2.1952
2.37422
2.03852
2.13592
1.69013
2.2939
1.26346
3.76694
0.619908
4.82254
-0.00610365
4.70937
0.384014
3.19768
1.28784
2.71584
1.88695
3.77249
2.11111
4.65942
1.94891
4.70732
1.67803
4.54585
1.26558
4.09726
0.766596
3.35687
0.220446
2.37675
-0.425651
1.39367
-0.929254
0.479662
-1.24607
-0.182425
-1.44333
-0.578149
-1.57891
-0.793429
-1.66146
-0.884808
-1.66998
-0.970298
-1.62779
-1.05775
-1.56899
-1.20106
-1.48628
-1.40904
-1.33872
-1.56828
-1.23753
-1.58809
-1.16699
-1.47609
-1.05892
-1.36595
-0.962222
-1.30357
-0.884463
-1.23884
-0.746781
-1.13236
-0.614064
-0.851981
-0.557377
-0.557378
-0.51202
-0.578403
-0.487329
-0.747079
-0.519648
-0.75905
-0.50681
-0.946674
-0.340136
-1.20787
-0.147819
-1.037
0.00305068
-0.656257
0.0976409
-0.413901
0.111796
-0.331315
0.0527155
-0.174188
-0.128189
0.325064
-0.407932
1.35019
-0.65822
1.96599
-0.785314
1.81579
-0.790649
1.23311
-0.727457
0.544316
-0.640805
-0.0067584
-0.560489
-0.366968
-0.501553
-0.553633
-0.463756
-0.489103
-0.417898
-0.323755
-0.371631
-0.219969
-0.356101
-0.0761188
-0.349672
0.0193661
-0.305752
-0.0947667
-0.252958
-0.17159
-0.126662
0.594962
-1.71246
0.838195
-2.63536
1.19568
-3.66724
1.79852
-3.38472
2.15507
-1.29301
2.75651
-1.50188
3.75601
-1.68405
4.54978
-0.0210548
5.18705
1.49364
5.86212
1.27366
6.08627
1.42038
6.08125
-0.826632
6.19577
-2.09772
7.17915
-4.61036
6.99747
-1.72937
8.31766
-4.154
10.1778
-3.98028
9.34637
0.129115
5.18464
7.71042
3.26546
16.2914
3.33924
8.8946
0.579314
3.79496
-1.10052
-3.14188
0.594636
-11.9392
3.29539
-13.4246
4.09123
-10.5433
6.04603
-1.42757
7.43158
-5.50621
7.19335
-8.55143
5.86465
-3.99325
4.31679
1.79301
3.64025
4.78333
4.70671
-1.42164
5.13621
-4.81143
3.35995
3.70985
2.15171
6.72533
2.40424
1.86436
2.32176
1.71184
1.99043
0.854491
1.10957
3.25509
1.22704
2.01845
1.76751
1.75344
1.55127
3.98319
1.23155
5.14227
0.95292
4.98802
0.798658
3.35197
0.846764
2.66775
1.20613
3.41314
1.63904
4.22651
1.6239
4.72247
1.50741
4.66236
1.3651
4.23958
1.14726
3.57471
0.714321
2.8097
0.136568
1.97143
-0.448649
1.06489
-0.86778
0.236717
-1.13366
-0.312256
-1.37293
-0.554147
-1.4793
-0.77843
-1.50086
-0.948722
-1.48419
-1.07441
-1.4437
-1.24153
-1.38087
-1.47186
-1.27698
-1.67215
-1.20886
-1.6562
-1.11516
-1.56979
-1.02088
-1.46022
-0.956505
-1.36795
-0.853295
-1.34204
-0.734522
-1.25113
-0.642102
-0.944398
-0.566081
-0.633399
-0.521199
-0.623284
-0.535933
-0.732345
-0.639172
-0.655812
-0.665291
-0.920556
-0.494379
-1.37879
-0.267443
-1.26394
-0.081022
-0.842682
0.0121386
-0.507066
0.0328332
-0.352014
-0.0200167
-0.121342
-0.212921
0.517964
-0.503901
1.64117
-0.727179
2.18927
-0.817052
1.90567
-0.767958
1.18401
-0.684289
0.460646
-0.606023
-0.085024
-0.519861
-0.453129
-0.455555
-0.617939
-0.424863
-0.519795
-0.403306
-0.345313
-0.372965
-0.250313
-0.366321
-0.0827673
-0.348153
0.00119214
-0.305998
-0.136928
-0.254416
-0.223177
-0.145981
0.55784
-2.26531
0.774927
-2.85246
1.12011
-4.01245
1.76591
-4.03055
2.16275
-1.68988
2.76216
-2.1013
3.73562
-2.65753
4.56675
-0.852197
5.15181
0.908574
5.90818
0.517265
6.13584
1.19271
6.28687
-0.977678
6.03138
-1.84224
5.12572
-3.70471
5.55963
-2.16329
9.0516
-7.646
9.61605
-4.54473
6.66081
3.08435
4.40815
9.96308
5.88504
14.8145
6.97874
7.80089
5.75017
5.02351
3.67064
-1.06238
4.40146
-12.6701
5.30428
-14.3274
4.57101
-9.81005
6.38364
-3.24021
6.89227
-6.01484
6.47137
-8.13053
4.8919
-2.41378
2.92466
3.76025
2.65252
5.05547
4.42997
-3.19909
5.0378
-5.41925
3.50975
5.2379
2.31626
7.91884
2.22042
1.96021
2.1362
1.79607
1.40933
1.58137
0.187551
4.47689
-0.234767
2.44078
0.499141
1.01955
0.991835
3.49051
1.06093
5.07319
1.29454
4.75442
1.23474
3.41178
0.698158
3.20434
0.602452
3.50886
0.976543
3.85243
1.11375
4.58528
1.09505
4.68107
1.12412
4.21051
1.12029
3.57855
0.954052
2.97595
0.518244
2.40724
-0.0406714
1.62381
-0.516122
0.712177
-0.892895
0.0645274
-1.13024
-0.316798
-1.26774
-0.640916
-1.3148
-0.901654
-1.32157
-1.06763
-1.30419
-1.2589
-1.25906
-1.51698
-1.18366
-1.74755
-1.08059
-1.75927
-1.03602
-1.61435
-0.967033
-1.5292
-0.868866
-1.46611
-0.802024
-1.40888
-0.713926
-1.33922
-0.607393
-1.05093
-0.553594
-0.687197
-0.539587
-0.63729
-0.604973
-0.666959
-0.775494
-0.485293
-0.860435
-0.835616
-0.664732
-1.5745
-0.391961
-1.53672
-0.186061
-1.04859
-0.0633716
-0.629759
-0.0321619
-0.383227
-0.090757
-0.062751
-0.307323
0.734527
-0.559688
1.89353
-0.709816
2.33939
-0.745321
1.94117
-0.708418
1.14711
-0.641784
0.394012
-0.56427
-0.162539
-0.484175
-0.533224
-0.424439
-0.677675
-0.398733
-0.5455
-0.384967
-0.35908
-0.367882
-0.267401
-0.355415
-0.0952387
-0.329456
-0.0247731
-0.272026
-0.194364
-0.22539
-0.269818
-0.150813
0.517256
-2.77757
0.64545
-2.98067
0.900025
-4.26705
1.62719
-4.75774
2.11893
-2.18163
2.69734
-2.67974
3.62982
-3.59002
4.50103
-1.72342
5.00385
0.405747
5.81375
-0.292648
6.15277
0.853675
6.62101
-1.44593
6.41409
-1.63534
3.46621
-0.75684
5.28797
-3.98507
9.1818
-11.5398
8.1219
-3.48484
6.32932
4.87693
5.48124
10.8111
7.73449
12.5613
8.41219
7.12317
7.71966
5.71603
6.53256
0.124699
5.41937
-11.5569
5.07539
-13.9835
4.12171
-8.85638
5.77523
-4.89375
7.04763
-7.28725
5.75027
-6.83317
2.77617
0.560323
0.625434
5.91098
1.9227
3.7582
4.02859
-5.30497
4.62668
-6.01734
3.47802
6.38656
2.63668
8.76018
2.31581
2.2811
1.80939
2.3025
1.22068
2.17009
0.571675
5.12591
-0.452992
3.46546
-0.156267
0.722837
0.176835
3.15743
0.67788
4.57216
1.33236
4.09995
1.33406
3.41009
0.648887
3.88953
0.230002
3.92775
0.362422
3.72002
0.5608
4.38691
0.713214
4.52866
0.831131
4.09261
0.905597
3.50409
0.855842
3.02571
0.642431
2.62066
0.229534
2.03672
-0.28497
1.22669
-0.648062
0.427628
-0.898849
-0.0660028
-1.05461
-0.485148
-1.12181
-0.834445
-1.15771
-1.03172
-1.16548
-1.25113
-1.12378
-1.55867
-1.06185
-1.80947
-1.02321
-1.7979
-0.958298
-1.67926
-0.897809
-1.58969
-0.824795
-1.53912
-0.735626
-1.49805
-0.676629
-1.39822
-0.595903
-1.13165
-0.532021
-0.751079
-0.537779
-0.631532
-0.67584
-0.528899
-0.920752
-0.240382
-1.0304
-0.725967
-0.854408
-1.75049
-0.544522
-1.8466
-0.29715
-1.29596
-0.151685
-0.775227
-0.104376
-0.430539
-0.177607
0.010477
-0.388813
0.94573
-0.610095
2.11481
-0.736987
2.46628
-0.755425
1.95961
-0.66752
1.0592
-0.594189
0.320682
-0.526617
-0.23011
-0.452314
-0.607526
-0.397917
-0.732072
-0.378255
-0.565162
-0.372965
-0.364372
-0.348548
-0.291821
-0.320964
-0.122827
-0.274667
-0.0710761
-0.230307
-0.23873
-0.191896
-0.308234
-0.164809
0.488323
-3.2609
0.527269
-3.01963
0.720186
-4.45998
1.48573
-5.5233
2.01034
-2.70626
2.58039
-3.2498
3.43825
-4.44788
4.37377
-2.65895
4.76371
0.0157954
5.53642
-1.06536
6.06141
0.328671
6.74716
-2.13169
8.0283
-2.91649
7.14514
0.126307
7.34332
-4.18327
7.25453
-11.4511
6.56953
-2.79984
6.49393
4.95252
6.01653
11.2885
8.24279
10.335
9.30844
6.05752
8.95457
6.06989
8.32583
0.753426
6.59561
-9.8267
5.8656
-13.2535
6.75566
-9.74645
7.92897
-6.06707
7.44519
-6.80347
4.78226
-4.17024
0.411353
4.93122
-1.34924
7.67157
1.44254
0.966423
3.62208
-7.48452
3.76532
-6.16058
2.89231
7.25958
3.2155
8.437
2.94767
2.54893
1.53575
3.71444
1.67862
2.02724
1.2442
5.56033
-0.441438
5.15112
-0.507087
0.7885
-0.254944
2.9053
0.0194403
4.29779
0.949936
3.16946
1.20688
3.15315
0.498295
4.59812
-0.0213666
4.44742
0.0373362
3.66132
0.230387
4.19387
0.43313
4.32593
0.698546
3.8272
0.761244
3.4414
0.716699
3.07026
0.564053
2.77331
0.291188
2.30959
-0.0538299
1.57171
-0.414564
0.788368
-0.677979
0.197419
-0.844281
-0.31884
-0.912418
-0.766302
-0.946658
-0.997478
-0.97574
-1.22204
-0.96595
-1.56845
-0.931005
-1.84441
-0.869376
-1.85953
-0.858566
-1.69007
-0.82203
-1.62622
-0.767633
-1.59352
-0.725345
-1.54033
-0.648668
-1.4749
-0.575337
-1.20498
-0.535312
-0.791104
-0.551803
-0.615041
-0.750267
-0.330436
-1.03458
0.0439354
-1.15042
-0.610131
-0.996467
-1.90445
-0.691244
-2.15183
-0.419193
-1.56801
-0.246423
-0.948
-0.182715
-0.49425
-0.255418
0.0831773
-0.473176
1.16349
-0.668024
2.30966
-0.733067
2.53133
-0.689942
1.91648
-0.611233
0.980496
-0.549993
0.259443
-0.49047
-0.289633
-0.428795
-0.669201
-0.382459
-0.778407
-0.359759
-0.587863
-0.350099
-0.374033
-0.325064
-0.316858
-0.265991
-0.181905
-0.201362
-0.135711
-0.159628
-0.28047
-0.142026
-0.32584
-0.165503
0.466664
-3.72257
0.45928
-3.01226
0.466597
-4.46732
1.22133
-6.27805
1.86636
-3.3513
2.43088
-3.81433
3.21607
-5.23308
4.18064
-3.62354
4.42415
-0.227719
5.04485
-1.68608
5.73167
-0.358159
6.62696
-3.02699
7.78015
-4.06969
7.64322
0.263236
6.57604
-3.1161
4.65467
-9.5297
4.68184
-2.82701
5.25442
4.37994
5.92705
10.6159
8.4134
7.84866
8.84042
5.63049
9.21056
5.69974
9.30672
0.657259
7.47943
-7.99943
6.84402
-12.6181
7.96274
-10.8652
8.74533
-6.84966
7.87788
-5.93603
4.87071
-1.16307
1.52275
8.27919
1.16509
8.02922
3.32424
-1.19273
3.88755
-8.04783
2.42301
-4.69603
1.84087
7.84173
3.14911
7.12878
3.00609
2.69196
1.83656
4.88398
0.692192
3.17162
-0.672609
6.92514
-0.663195
5.14172
-0.678469
0.803785
-1.11448
3.34132
-0.725259
3.90858
0.261919
2.18229
0.809826
2.60525
0.200978
5.20697
-0.368157
5.01657
-0.148063
3.44124
0.166669
3.87914
0.379166
4.11344
0.515603
3.69077
0.562894
3.39411
0.546013
3.08715
0.446969
2.87236
0.293549
2.46301
0.033963
1.8313
-0.24774
1.07008
-0.492386
0.442069
-0.648929
-0.162291
-0.724484
-0.690743
-0.766612
-0.955345
-0.798708
-1.18994
-0.790148
-1.57701
-0.778106
-1.85645
-0.796001
-1.84163
-0.767392
-1.71868
-0.737388
-1.65622
-0.702189
-1.62872
-0.663073
-1.57945
-0.627335
-1.51063
-0.553476
-1.27884
-0.517082
-0.827498
-0.571364
-0.560759
-0.798482
-0.103318
-1.12427
0.369728
-1.24651
-0.4879
-1.08357
-2.06738
-0.773153
-2.46225
-0.520125
-1.82104
-0.342039
-1.12609
-0.258722
-0.577569
-0.343999
0.168452
-0.522333
1.34182
-0.663154
2.45048
-0.677932
2.5461
-0.624192
1.86274
-0.549385
0.905689
-0.500454
0.210513
-0.460399
-0.329687
-0.410657
-0.718942
-0.365442
-0.823622
-0.345198
-0.608106
-0.333946
-0.385287
-0.288442
-0.362365
-0.206902
-0.263449
-0.123188
-0.219431
-0.0731507
-0.330514
-0.0496789
-0.349317
-0.157922
0.440592
-4.15817
0.420986
-2.99266
0.246112
-4.29245
0.869298
-6.90125
1.64918
-4.13119
2.2347
-4.39985
2.95005
-5.94844
3.9431
-4.61658
4.0076
-0.292228
4.45575
-2.13424
5.33495
-1.23736
6.26443
-3.95648
7.28234
-5.0876
7.83277
-0.287199
5.37748
-0.660817
1.08984
-5.24207
1.69111
-3.42828
3.67692
2.39412
5.2023
9.09052
7.87729
5.17366
8.78637
4.7214
9.64435
4.84176
9.76658
0.535023
8.53173
-6.76459
7.9275
-12.0139
8.62393
-11.5616