/*--------------------------------*- C++ -*----------------------------------*\
| =========                 |                                                 |
| \\      /  F ield         | foam-extend: Open Source CFD                    |
|  \\    /   O peration     | Version:     5.0                                |
|   \\  /    A nd           | Web:         http://www.foam-extend.org         |
|    \\/     M anipulation  |                                                 |
\*---------------------------------------------------------------------------*/
FoamFile
{
    version     2.0;
    format      ascii;
    class       volVectorField;
    location    "0.095";
    object      U;
}
// * * * * * * * * * * * * * * * * * * * * * * * * * * * * * * * * * * * * * //

dimensions      [0 1 -1 0 0 0 0];

internalField   nonuniform List<vector> 
4000
(
(-122.443 42.0286 0)
(-246.755 -5.42111 0)
(-170.397 -9.90652 0)
(-125.485 0.281684 0)
(-101.814 0.438213 0)
(-70.5888 13.4242 0)
(-103.251 29.3282 0)
(-462.833 76.7848 0)
(-770.501 67.026 0)
(-787.23 26.8665 0)
(-1484.17 -3.2646 0)
(-1357.28 -52.943 0)
(-1239.36 -42.3609 0)
(-1663.22 -0.954951 0)
(-2278.6 78.6194 0)
(-3054.08 238.361 0)
(-2707.21 29.7795 0)
(-2959.79 -4.8854 0)
(-2512.09 -64.3567 0)
(-2046.38 -75.4092 0)
(-1390.44 -64.3519 0)
(-878.863 51.3045 0)
(-1170.88 11.6432 0)
(-1269.38 -61.2453 0)
(-803.129 -27.5845 0)
(-539.736 6.01291 0)
(-186.464 4.10245 0)
(430.681 91.6038 0)
(719.292 120.406 0)
(540.694 147.313 0)
(477.895 111.97 0)
(524.88 96.2609 0)
(501.277 101.683 0)
(237.367 27.5103 0)
(-3.72523 17.5299 0)
(-64.0598 36.1805 0)
(-122.612 25.9194 0)
(-151.982 39.6014 0)
(-246.167 24.3387 0)
(-297.866 35.6783 0)
(-217.851 17.1047 0)
(-277.139 21.0053 0)
(-296.875 11.817 0)
(-322.936 1.97191 0)
(-376.746 2.83788 0)
(-366.478 3.48595 0)
(-414.176 2.16124 0)
(-397.009 -2.36169 0)
(-433.904 -4.44794 0)
(-385.213 -6.70879 0)
(-363.939 -6.01367 0)
(-300.691 -4.57967 0)
(-295.061 -3.98165 0)
(-250.121 -8.39223 0)
(-210.19 -6.356 0)
(-174.433 -2.65251 0)
(-164.581 -3.40014 0)
(-123.089 -3.75295 0)
(-110.811 -2.75992 0)
(-79.0914 -2.28381 0)
(-74.6244 -1.11916 0)
(-60.5969 -2.40589 0)
(-45.8447 -0.636274 0)
(-43.9599 -0.424186 0)
(-34.138 -0.602347 0)
(-27.9902 -0.994199 0)
(-17.1675 -0.829764 0)
(-12.0878 -0.0359631 0)
(-8.42724 -0.227455 0)
(-2.98952 -0.0877256 0)
(-0.909682 -0.0360394 0)
(-1.53208 -0.0921065 0)
(0.613718 -0.206275 0)
(4.01306 -0.66033 0)
(10.4826 -0.921793 0)
(18.3439 -0.924008 0)
(25.8637 -0.773193 0)
(31.2977 -0.294233 0)
(33.2563 0.116573 0)
(31.169 0.362501 0)
(28.0924 0.536066 0)
(24.59 0.51204 0)
(27.9089 -0.578311 0)
(37.1013 -1.55117 0)
(45.5193 -1.01677 0)
(45.8459 0.245927 0)
(39.1618 0.927227 0)
(28.416 1.01287 0)
(23.6616 0.607159 0)
(18.592 0.473388 0)
(15.9821 0.142469 0)
(17.5484 0.376385 0)
(12.3332 1.0188 0)
(4.92528 0.856476 0)
(1.43708 0.273019 0)
(0.579166 -0.0483624 0)
(2.41954 -0.156285 0)
(2.01625 0.221592 0)
(-1.96161 0.707378 0)
(-1.93906 0.0519512 0)
(-74.7204 99.3974 0)
(-219.891 -9.57695 0)
(-134.637 -29.3965 0)
(-73.2855 -16.6224 0)
(-29.9529 -3.92529 0)
(-78.9108 5.53469 0)
(-256.519 67.7251 0)
(-891.94 135.662 0)
(-932.392 9.99989 0)
(-353.995 52.7192 0)
(-872.597 180.311 0)
(-1904.26 19.5949 0)
(-1585.52 83.2394 0)
(-1643 183.601 0)
(-2426.78 273.278 0)
(-2678.3 58.5982 0)
(-2467.86 -118.955 0)
(-3109.81 -172.409 0)
(-1962.51 -216.433 0)
(-1192.31 -192 0)
(-881.601 -152.275 0)
(-763.462 -111.894 0)
(65.0304 -31.3698 0)
(337.378 -21.828 0)
(140.395 -89.4001 0)
(264.901 -125.643 0)
(579.199 -296.989 0)
(1291.96 -215.507 0)
(1568.1 -8.52516 0)
(1426.86 56.0561 0)
(1072 -11.1501 0)
(835.197 -23.6829 0)
(727.321 22.0718 0)
(719.484 75.8892 0)
(758.206 59.9199 0)
(789.262 29.4602 0)
(875.844 25.4206 0)
(856.555 39.145 0)
(855.644 33.2398 0)
(833.363 18.6144 0)
(705.632 22.4584 0)
(485.415 41.6919 0)
(259.839 38.4523 0)
(30.6484 25.1023 0)
(-80.0053 19.6366 0)
(-236.267 15.2586 0)
(-299.563 12.1832 0)
(-424.668 11.7259 0)
(-473.469 4.55149 0)
(-542.761 -11.317 0)
(-507.789 -16.6201 0)
(-496.277 -12.1894 0)
(-452.716 -9.66258 0)
(-464.252 -13.3728 0)
(-416.605 -14.8103 0)
(-395.837 -11.4544 0)
(-329.165 -12.1111 0)
(-314.707 -11.5869 0)
(-252.954 -9.53158 0)
(-239.994 -7.6987 0)
(-215.77 -5.99051 0)
(-177.016 -6.11226 0)
(-168.552 -4.19215 0)
(-131.407 -4.08164 0)
(-123.857 -4.14988 0)
(-88.3806 -4.7743 0)
(-65.014 -4.11333 0)
(-58.7356 -2.19896 0)
(-34.541 -2.50655 0)
(-22.9751 -1.45425 0)
(-21.7209 -0.554757 0)
(-16.7654 -0.833499 0)
(-8.83791 -1.19375 0)
(-0.498512 -2.51965 0)
(13.2189 -3.46118 0)
(30.2733 -3.81843 0)
(47.561 -3.12237 0)
(59.5196 -1.63331 0)
(66.8115 -0.0876196 0)
(65.7088 1.05319 0)
(59.3454 1.29208 0)
(58.5007 0.00713071 0)
(72.0218 -2.69362 0)
(83.3785 -4.50483 0)
(98.0376 -2.38421 0)
(92.8731 1.44591 0)
(87.634 3.97483 0)
(58.1042 3.9856 0)
(50.1257 2.90194 0)
(27.6925 1.52647 0)
(26.806 0.217924 0)
(30.8756 1.1997 0)
(22.2648 2.91707 0)
(13.8284 2.60555 0)
(5.19389 1.20922 0)
(0.709889 0.121641 0)
(1.73896 -0.331836 0)
(-1.02128 0.691671 0)
(-9.2126 1.68481 0)
(-8.14779 -0.121068 0)
(31.5199 131.123 0)
(-53.0628 -25.1104 0)
(-25.8033 -46.3562 0)
(32.7665 -25.5619 0)
(30.4475 4.41619 0)
(31.3517 33.7918 0)
(-174.816 148.596 0)
(-370.007 202.783 0)
(-88.6065 -14.249 0)
(-162.464 115.746 0)
(-592.697 260.122 0)
(-1104.51 70.5562 0)
(-1011.73 70.909 0)
(-843.842 216.608 0)
(-727.631 332.839 0)
(-189.026 167.399 0)
(-558.329 87.3035 0)
(-1501.77 -138.691 0)
(-1750.89 -349.466 0)
(-1651.98 -407.039 0)
(-770.97 -226.06 0)
(-310.986 -311.397 0)
(445.218 -216.96 0)
(774.989 -147.431 0)
(612.887 -70.448 0)
(350.523 -91.9682 0)
(455.264 -425.943 0)
(906.892 -325.47 0)
(1508.1 -144.676 0)
(1372.51 22.7248 0)
(1008.22 52.791 0)
(628.545 79.7373 0)
(351.763 54.7173 0)
(537.97 44.0191 0)
(944.127 9.96941 0)
(1163.31 -10.5423 0)
(1208.37 8.06588 0)
(1328.19 15.7818 0)
(1299.11 14.3604 0)
(1191.94 7.47679 0)
(1102.87 42.9454 0)
(861.353 85.8095 0)
(669.618 90.7455 0)
(425.992 71.4898 0)
(255.877 59.8354 0)
(29.4036 50.7482 0)
(-96.82 42.6222 0)
(-236.573 39.3097 0)
(-373.833 23.954 0)
(-440.864 -0.137277 0)
(-515.661 -15.152 0)
(-502.316 -15.0626 0)
(-522.83 -12.3994 0)
(-506.224 -15.7392 0)
(-516.802 -21.1894 0)
(-479.212 -21.5641 0)
(-427.908 -22.0236 0)
(-419.398 -20.8165 0)
(-356.959 -18.7238 0)
(-342.826 -14.1358 0)
(-296.135 -12.6838 0)
(-291.355 -12.1035 0)
(-256.151 -11.289 0)
(-219.478 -10.9084 0)
(-201.11 -10.747 0)
(-157.285 -12.0921 0)
(-143.095 -10.1568 0)
(-101.98 -7.93491 0)
(-74.1829 -6.9343 0)
(-66.2276 -4.27061 0)
(-42.2009 -2.90851 0)
(-35.7072 -2.80648 0)
(-23.8052 -3.03924 0)
(-15.6454 -5.38841 0)
(-3.06007 -7.80432 0)
(18.1015 -8.90571 0)
(38.649 -7.84172 0)
(56.2887 -4.85476 0)
(71.4289 -1.30373 0)
(72.2859 1.81208 0)
(66.5119 1.63157 0)
(74.9838 -1.56295 0)
(89.4611 -5.87419 0)
(103.266 -8.53251 0)
(110.089 -3.43232 0)
(102.922 4.13405 0)
(76.8857 9.26567 0)
(56.0141 10.1457 0)
(23.323 7.34288 0)
(16.2559 3.40083 0)
(6.94765 0.747936 0)
(5.41521 1.68906 0)
(9.50789 4.11882 0)
(9.15932 4.53102 0)
(2.76671 2.78684 0)
(-1.98883 0.878953 0)
(-4.24985 0.0586903 0)
(-8.4707 1.79269 0)
(-15.5268 2.94493 0)
(-8.79019 -0.423996 0)
(115.925 136.421 0)
(26.189 -30.7845 0)
(72.473 -56.4213 0)
(86.9434 -27.8642 0)
(104.034 11.274 0)
(115.798 50.246 0)
(-35.3603 169.586 0)
(6.18561 195.358 0)
(-20.8555 15.9999 0)
(-262.212 188.349 0)
(-65.9138 314.907 0)
(-188.521 95.7536 0)
(-147.206 13.5757 0)
(28.2003 105.894 0)
(235.713 206.942 0)
(588.212 132.194 0)
(444.749 206.396 0)
(122.912 74.6908 0)
(-779.322 -261.528 0)
(-929.239 -378.347 0)
(-917.044 -375.587 0)
(56.9005 -393.104 0)
(691.998 -335.483 0)
(836.141 -73.1443 0)
(-50.254 66.3926 0)
(-37.4252 -40.9599 0)
(-18.6539 -459.34 0)
(-520.213 -366.954 0)
(834.625 -123.806 0)
(776.034 130.71 0)
(486.717 187.346 0)
(194.57 200.262 0)
(-58.0471 148.636 0)
(127.316 -66.3516 0)
(846.216 -158.802 0)
(1114.74 -97.115 0)
(1366.76 -58.9947 0)
(1235.53 0.497255 0)
(1256.22 16.2822 0)
(1175.93 47.0704 0)
(1039.72 87.8348 0)
(977.478 147.846 0)
(829.348 150.772 0)
(657.192 124.149 0)
(419.984 110.645 0)
(262.969 99.3694 0)
(38.4029 84.6615 0)
(-149.78 75.5656 0)
(-231.631 54.0694 0)
(-358.265 21.0363 0)
(-431.515 -1.03763 0)
(-507.488 -8.592 0)
(-517.491 -9.90685 0)
(-551.573 -15.3884 0)
(-537.99 -23.0007 0)
(-544.848 -29.3095 0)
(-497.337 -30.5322 0)
(-485.074 -29.5843 0)
(-427.781 -27.5856 0)
(-412.584 -22.4252 0)
(-363.673 -19.5514 0)
(-355.256 -17.7191 0)
(-316.589 -18.6109 0)
(-296.729 -19.1259 0)
(-253.107 -20.2152 0)
(-210.126 -20.0124 0)
(-193.893 -17.5086 0)
(-149.937 -16.508 0)
(-129.769 -12.779 0)
(-102.687 -9.23392 0)
(-75.2933 -8.21079 0)
(-51.5196 -5.89105 0)
(-46.095 -5.26297 0)
(-34.7409 -8.14338 0)
(-22.4689 -12.1578 0)
(-0.788869 -14.1449 0)
(17.0633 -13.2335 0)
(44.8901 -9.51107 0)
(55.4247 -3.75867 0)
(70.1055 1.2757 0)
(66.5809 0.665287 0)
(76.904 -4.1499 0)
(90.5335 -9.30508 0)
(106.971 -11.4445 0)
(109.575 -2.32678 0)
(85.1715 9.61623 0)
(60.8904 16.5791 0)
(19.1495 17.575 0)
(-2.07834 13.3304 0)
(-27.9237 5.65515 0)
(-31.4549 1.89774 0)
(-29.8637 0.373576 0)
(-11.2492 2.42968 0)
(-6.19361 5.06926 0)
(-10.4465 3.78248 0)
(-11.4248 1.65711 0)
(-14.3444 0.857918 0)
(-18.2096 2.45228 0)
(-21.3981 3.44734 0)
(-19.1888 -0.983627 0)
(169.339 122.131 0)
(72.7017 -39.4272 0)
(114.368 -64.6088 0)
(149.457 -29.0824 0)
(155.245 12.1024 0)
(181.407 59.4882 0)
(58.9872 169.77 0)
(190.774 205.58 0)
(60.1315 56.309 0)
(-323.624 197 0)
(149.972 262.279 0)
(147.06 118.189 0)
(164.009 6.45125 0)
(298.47 40.0317 0)
(534.176 149.77 0)
(784.409 126.135 0)
(825.665 226.729 0)
(1048.65 200.082 0)
(430.527 -93.3136 0)
(276.299 -454.238 0)
(166.053 -437.809 0)
(791.001 -423.476 0)
(869.679 -384.254 0)
(941.67 47.3591 0)
(125.379 197.816 0)
(404.736 -55.5289 0)
(78.7386 -380.49 0)
(-1132.79 -154.291 0)
(-418.47 -15.4299 0)
(111.048 131.851 0)
(204.083 183.317 0)
(-61.2175 245.145 0)
(492.877 69.1199 0)
(604.685 -176.599 0)
(693.617 -240.663 0)
(840.452 -142.965 0)
(994.868 -27.8722 0)
(916.339 26.3932 0)
(860.23 48.6104 0)
(809.199 69.1798 0)
(896.927 104.417 0)
(979.621 153.567 0)
(948.112 190.21 0)
(715.457 177.393 0)
(538.403 158.199 0)
(414.577 146.062 0)
(190.673 136.132 0)
(40.601 115.644 0)
(-115.086 80.4739 0)
(-212.8 48.6378 0)
(-366.887 22.6748 0)
(-443.639 7.14784 0)
(-519.695 -1.59879 0)
(-530.368 -10.9607 0)
(-559.641 -23.0837 0)
(-541.165 -31.6256 0)
(-538.353 -37.3302 0)
(-500.109 -37.9981 0)
(-479.512 -35.6736 0)
(-438.823 -30.5623 0)
(-418.551 -26.5531 0)
(-385.015 -24.0522 0)
(-368.843 -25.4263 0)
(-331.06 -26.7655 0)
(-306.303 -30.345 0)
(-256.298 -29.218 0)
(-218.143 -26.2121 0)
(-194.655 -24.3888 0)
(-161.382 -19.5418 0)
(-119.631 -17.1198 0)
(-88.0303 -14.5579 0)
(-76.675 -9.81898 0)
(-59.7961 -7.15751 0)
(-55.5855 -10.9042 0)
(-40.5145 -16.3515 0)
(-24.4737 -19.3543 0)
(3.40409 -19.2317 0)
(21.8658 -14.7633 0)
(49.999 -7.55609 0)
(55.6889 -0.535724 0)
(66.5798 -0.560933 0)
(69.7204 -6.63904 0)
(87.3759 -12.8328 0)
(97.575 -13.4724 0)
(88.0368 0.753638 0)
(65.2498 17.0045 0)
(21.0817 25.5682 0)
(-11.0515 26.4059 0)
(-48.5998 19.2462 0)
(-61.5348 9.25703 0)
(-73.5088 1.90362 0)
(-58.0748 -3.71644 0)
(-37.6975 -1.60759 0)
(-20.8887 4.28394 0)
(-23.9922 4.22173 0)
(-22.8868 2.1921 0)
(-26.1624 1.62738 0)
(-28.6209 2.85042 0)
(-33.5155 3.97145 0)
(-27.8383 -1.0291 0)
(192.084 101.06 0)
(105.829 -45.4716 0)
(115.745 -74.9898 0)
(163.312 -39.924 0)
(220.275 13.5826 0)
(257.289 58 0)
(162.761 162.506 0)
(339.188 201.797 0)
(238.453 107.646 0)
(-31.4551 153.857 0)
(282.844 196.749 0)
(301.193 96.7857 0)
(392.043 11.6536 0)
(371.393 -1.5885 0)
(633.024 51.0593 0)
(1095.87 84.884 0)
(1070.49 191.948 0)
(1125.29 135.64 0)
(1146.7 -77.0726 0)
(1084.11 -341.848 0)
(432.931 -511.568 0)
(738.663 -573.096 0)
(640.919 -427.373 0)
(657.991 95.9075 0)
(375.154 210.237 0)
(594.359 2.74382 0)
(394.652 -235.93 0)
(-677.028 -507.731 0)
(-198.212 -325.186 0)
(-113.082 19.5976 0)
(-23.4187 172.128 0)
(257.176 149.529 0)
(705.134 -2.55386 0)
(883.873 -201.812 0)
(991.968 -256.741 0)
(606.806 -84.0538 0)
(571.061 7.56618 0)
(560.088 38.5312 0)
(583.605 61.9159 0)
(712.294 62.7947 0)
(571.547 59.6019 0)
(860.236 126.156 0)
(958.178 198.492 0)
(790.178 219.963 0)
(636.772 198.193 0)
(499.647 185.408 0)
(380.836 182.197 0)
(201.23 156.832 0)
(21.6208 114.117 0)
(-74.7787 81.3154 0)
(-258.067 55.7254 0)
(-366.398 32.3802 0)
(-480.67 10.7817 0)
(-501.041 -4.85978 0)
(-542.59 -21.3828 0)
(-526.844 -34.7469 0)
(-509.448 -41.3245 0)
(-513.76 -43.1186 0)
(-476.453 -42.2797 0)
(-461.949 -37.8916 0)
(-427.498 -32.7697 0)
(-413.526 -30.1992 0)
(-380.494 -31.8491 0)
(-364.914 -34.9002 0)
(-315.859 -39.5009 0)
(-291.19 -39.1652 0)
(-252.344 -34.8196 0)
(-216.598 -32.1497 0)
(-172.666 -28.9908 0)
(-137.886 -26.1976 0)
(-105.932 -20.6357 0)
(-96.0938 -13.3837 0)
(-79.8606 -9.78283 0)
(-68.3143 -13.4324 0)
(-58.804 -20.3299 0)
(-36.4691 -24.7405 0)
(-18.7205 -25.2703 0)
(11.5404 -20.8684 0)
(29.7544 -12.1762 0)
(52.7591 -3.22433 0)
(55.0138 -2.47495 0)
(66.9032 -9.12471 0)
(77.2658 -15.3472 0)
(83.5265 -13.1752 0)
(69.9207 5.55104 0)
(30.0574 26.6955 0)
(-11.0763 36.2161 0)
(-61.4485 35.3328 0)
(-77.7405 25.8975 0)
(-100.385 11.7265 0)
(-103.641 0.833415 0)
(-80.8956 -8.35759 0)
(-61.6481 -6.6945 0)
(-41.1137 2.02905 0)
(-37.8911 3.99323 0)
(-36.6703 2.39997 0)
(-37.5556 2.12794 0)
(-39.644 3.02176 0)
(-41.1191 3.97238 0)
(-31.9901 -1.38381 0)
(201.672 76.4095 0)
(129.536 -54.8853 0)
(150.849 -85.6665 0)
(222.811 -49.1233 0)
(269.539 5.39152 0)
(325.545 55.4783 0)
(279.017 139.668 0)
(477.271 194.046 0)
(508.62 159.38 0)
(214.215 160.731 0)
(440.88 156.839 0)
(518.084 59.1648 0)
(675.156 8.94261 0)
(710.891 -35.4999 0)
(813.496 -26.6423 0)
(1257.6 38.3509 0)
(1420.66 177.373 0)
(1363.1 118.256 0)
(1588.85 -103.923 0)
(1550.09 -272.742 0)
(765.654 -380.3 0)
(614.283 -514.966 0)
(-242.287 -433.323 0)
(556.618 77.4863 0)
(477.158 236.671 0)
(927.29 22.1361 0)
(334.969 -21.0904 0)
(-1164.3 -48.829 0)
(-281.23 -345.527 0)
(247.441 -105.039 0)
(836.12 45.7945 0)
(1013.81 84.3005 0)
(1010.51 -40.3935 0)
(1052.11 -208.962 0)
(1032.57 -204.128 0)
(645.638 -5.70834 0)
(461.18 40.0049 0)
(320.035 30.4399 0)
(479.318 10.1914 0)
(468.178 58.9974 0)
(332.897 43.9837 0)
(511.144 65.4252 0)
(743.491 209.566 0)
(820.348 228.281 0)
(696.454 223.837 0)
(607.961 212.953 0)
(498.543 217.397 0)
(349.754 200.457 0)
(195.434 151.58 0)
(39.0657 117.393 0)
(-126.247 94.2013 0)
(-293.612 61.1282 0)
(-391.238 30.7835 0)
(-462.552 3.58838 0)
(-478.618 -17.1469 0)
(-504.882 -36.215 0)
(-484.078 -44.0692 0)
(-496.855 -47.1309 0)
(-464.131 -48.737 0)
(-444.929 -43.3429 0)
(-436.626 -38.4283 0)
(-407.135 -35.911 0)
(-392.073 -37.5048 0)
(-358.489 -43.7885 0)
(-316.748 -48.4975 0)
(-300.827 -46.4645 0)
(-254.596 -43.4307 0)
(-234.182 -41.8864 0)
(-187.923 -39.0542 0)
(-159.713 -34.2572 0)
(-136.429 -26.2522 0)
(-105.869 -17.5429 0)
(-90.8396 -12.53 0)
(-85.6096 -16.3288 0)
(-68.0102 -24.4186 0)
(-54.7313 -29.6404 0)
(-29.0374 -31.3576 0)
(-10.2642 -27.3044 0)
(24.2582 -17.5682 0)
(36.1386 -6.69669 0)
(52.7458 -4.73098 0)
(56.7731 -11.2971 0)
(68.4713 -16.4085 0)
(69.1406 -11.6744 0)
(41.5798 12.8758 0)
(0.101132 38.204 0)
(-57.2936 48.7228 0)
(-101.025 43.0891 0)
(-111.809 30.2132 0)
(-128.288 13.3249 0)
(-118.13 -1.55028 0)
(-103.807 -13.3271 0)
(-84.796 -12.1988 0)
(-62.8756 -1.30917 0)
(-55.3142 2.73441 0)
(-48.4172 1.95696 0)
(-47.1841 2.29623 0)
(-48.1415 2.61609 0)
(-45.599 2.82745 0)
(-31.0761 -2.09133 0)
(208.273 48.265 0)
(146.701 -67.7013 0)
(186.895 -99.7561 0)
(248.822 -64.6167 0)
(321.242 -1.99813 0)
(381.94 41.3323 0)
(383.278 116.537 0)
(596.363 166.141 0)
(709.734 177.451 0)
(552.117 173.439 0)
(703.38 123.984 0)
(765.604 22.001 0)
(912.435 1.14369 0)
(1095.57 -55.8437 0)
(1093.75 -114.043 0)
(1423.83 0.0087593 0)
(1553.49 158.969 0)
(1595.28 103.899 0)
(1806.59 -82.1518 0)
(1603.68 -172.757 0)
(826.518 -237.819 0)
(653.375 -422.414 0)
(68.7156 -410.727 0)
(406.685 -22.7237 0)
(476.331 170.4 0)
(877.371 -3.74441 0)
(918.081 33.9573 0)
(569.728 -82.626 0)
(490.356 -478.12 0)
(661.237 -204.788 0)
(1101.46 -53.4378 0)
(1033.1 113.729 0)
(1103.01 -29.9556 0)
(1193.28 -233.626 0)
(1077.39 -165.883 0)
(713.569 48.8342 0)
(520.998 79.9764 0)
(383.792 33.1296 0)
(381.548 32.292 0)
(345.983 108.997 0)
(78.369 60.4163 0)
(294.566 5.97501 0)
(576.66 146.989 0)
(538.721 240.365 0)
(613.056 234.988 0)
(604.597 228.414 0)
(597.414 239.763 0)
(519.365 238.29 0)
(329.554 192.705 0)
(193.527 158.306 0)
(54.6977 137.534 0)
(-88.5577 102.175 0)
(-262.553 55.6202 0)
(-339.37 18.9074 0)
(-411.333 -10.3184 0)
(-428.18 -33.2876 0)
(-454.59 -43.854 0)
(-447.761 -48.3425 0)
(-449.928 -52.4009 0)
(-442.879 -46.8946 0)
(-415.896 -42.8188 0)
(-407.236 -41.6353 0)
(-377.067 -43.8641 0)
(-344.594 -52.054 0)
(-329.483 -55.2941 0)
(-292.711 -54.6964 0)
(-268.808 -51.6597 0)
(-230.26 -49.3699 0)
(-207.713 -46.5992 0)
(-181.652 -41.185 0)
(-142.095 -33.4794 0)
(-126.174 -23.2237 0)
(-106.661 -15.9193 0)
(-91.7455 -19.0425 0)
(-81.4091 -28.384 0)
(-61.5752 -34.1942 0)
(-49.7517 -36.9804 0)
(-19.7819 -34.0345 0)
(3.85708 -23.6582 0)
(32.0702 -10.7116 0)
(40.2614 -7.33121 0)
(52.8506 -12.8357 0)
(57.0378 -16.6735 0)
(50.0438 -8.18697 0)
(17.6511 21.7047 0)
(-36.9115 51.9387 0)
(-84.1756 61.0218 0)
(-131.208 50.0258 0)
(-138.709 31.8762 0)
(-138.47 12.1891 0)
(-129.63 -4.91331 0)
(-110.573 -17.3012 0)
(-98.3553 -16.3776 0)
(-82.9304 -5.07088 0)
(-68.28 -0.00604713 0)
(-56.8268 0.660985 0)
(-56.0016 2.08951 0)
(-53.4757 1.45364 0)
(-50.2524 0.733386 0)
(-32.0804 -3.25265 0)
(210.452 18.8607 0)
(152.258 -83.5936 0)
(179.487 -115.194 0)
(288.662 -80.214 0)
(353.397 -11.7474 0)
(425.389 23.6067 0)
(480.4 76.7303 0)
(690.484 133.137 0)
(851.045 171.451 0)
(774.391 163.356 0)
(950.997 107.554 0)
(921.648 -10.1315 0)
(1058.14 -28.0094 0)
(1350.62 -90.4 0)
(1267.54 -138.039 0)
(1474.07 -42.0464 0)
(1699.3 129.867 0)
(1686.97 52.8406 0)
(2093.23 -109.178 0)
(1711.16 8.46226 0)
(-48.2096 -61.1775 0)
(524.75 -326.506 0)
(-251.844 -330.008 0)
(-466.375 -138.731 0)
(858.433 120.301 0)
(1042.4 -42.3884 0)
(1234.04 32.2906 0)
(1005.02 -0.717383 0)
(993.879 -439.716 0)
(1281.9 -313.748 0)
(1363.7 -85.8896 0)
(1177.8 121.826 0)
(1103.11 -28.3237 0)
(1179.35 -214.637 0)
(1075.09 -114.375 0)
(742.152 106.331 0)
(659.36 95.9202 0)
(555.308 24.3838 0)
(488.354 11.8621 0)
(462.208 133.41 0)
(471.859 45.1096 0)
(122.804 38.2194 0)
(102.081 139.651 0)
(348.939 213.619 0)
(261.093 230.426 0)
(387.309 217.801 0)
(498.181 232.796 0)
(554.713 255.518 0)
(477.586 229.197 0)
(323.669 186.468 0)
(226.093 173.745 0)
(59.1094 138.858 0)
(-71.5564 89.285 0)
(-217.089 40.7306 0)
(-285.815 4.73965 0)
(-357.459 -25.0724 0)
(-376.93 -39.3533 0)
(-407.995 -47.502 0)
(-401.599 -51.744 0)
(-417.723 -50.3452 0)
(-393.028 -46.6089 0)
(-392.992 -46.2745 0)
(-361.84 -50.7183 0)
(-347.683 -57.9373 0)
(-313.536 -61.8979 0)
(-295.929 -62.0361 0)
(-253.926 -59.1345 0)
(-236.916 -56.4151 0)
(-203.138 -53.038 0)
(-188.246 -49.0025 0)
(-147.658 -40.6959 0)
(-134.966 -27.3866 0)
(-109.498 -19.4711 0)
(-101.652 -22.4862 0)
(-84.9777 -32.0783 0)
(-76.0321 -37.6818 0)
(-61.2427 -41.8909 0)
(-44.6733 -41.0148 0)
(-4.31581 -30.3383 0)
(13.7036 -15.617 0)
(37.0884 -10.2211 0)
(42.5569 -14.7085 0)
(46.678 -15.2428 0)
(34.5975 -3.4163 0)
(-7.83354 33.3702 0)
(-63.6248 66.1619 0)
(-117.253 71.4771 0)
(-139.713 56.7038 0)
(-156.264 32.4834 0)
(-141.462 9.99367 0)
(-131.346 -7.77495 0)
(-114.544 -20.547 0)
(-105.704 -19.7731 0)
(-92.629 -9.07647 0)
(-74.976 -3.53144 0)
(-62.4555 -0.990353 0)
(-61.9856 1.78449 0)
(-58.8692 -0.019774 0)
(-55.046 -1.89007 0)
(-36.0048 -4.23274 0)
(215.132 -10.9672 0)
(153.11 -99.3948 0)
(184.477 -136.565 0)
(294.632 -101.098 0)
(388.197 -26.1349 0)
(457.53 -2.34115 0)
(546.77 36.9969 0)
(765.473 97.7745 0)
(943.787 149.525 0)
(931.274 142.173 0)
(1111.97 96.9319 0)
(1075.92 -32.8144 0)
(1089.32 -65.444 0)
(1517.12 -124.371 0)
(1327.25 -144.843 0)
(1397.75 -64.5133 0)
(1665.34 111.014 0)
(1748.65 49.2844 0)
(2173.12 -106.335 0)
(1466.29 248.017 0)
(-328.92 165.155 0)
(-40.8016 -263.419 0)
(-1505.08 -246.146 0)
(-1407.65 -235.107 0)
(13.4066 -96.4552 0)
(1274.65 -189.932 0)
(1317.88 31.017 0)
(1205.84 -115.649 0)
(1411.83 -445.714 0)
(1462.83 -333.901 0)
(1319.68 -38.0323 0)
(1147.79 191.853 0)
(1180.63 -18.3229 0)
(1223.75 -210.509 0)
(972.467 -46.1937 0)
(544.911 178.622 0)
(511.951 141.549 0)
(583.182 66.1614 0)
(418.954 31.3549 0)
(510.25 126.489 0)
(520.785 100.084 0)
(334.451 71.4966 0)
(81.6184 145.752 0)
(45.2664 216.084 0)
(80.8066 206.111 0)
(162.613 178.463 0)
(178.266 204.827 0)
(473.286 240.6 0)
(512.536 243.791 0)
(429.518 217.029 0)
(303.353 200.075 0)
(220.975 175.135 0)
(96.3281 130.475 0)
(-64.9115 73.0727 0)
(-182.295 23.5782 0)
(-247.114 -10.2129 0)
(-314.644 -31.6808 0)
(-334.002 -42.1785 0)
(-364.348 -49.4907 0)
(-366.037 -49.226 0)
(-375.135 -49.2413 0)
(-358.64 -48.8937 0)
(-350.96 -55.8345 0)
(-322.685 -64.0318 0)
(-307.683 -68.0258 0)
(-274.405 -70.0195 0)
(-240.306 -66.7354 0)
(-218.092 -61.588 0)
(-209.202 -57.8698 0)
(-179.565 -55.0302 0)
(-161.388 -46.6862 0)
(-131.759 -33.0894 0)
(-116.753 -23.4419 0)
(-102.549 -25.2297 0)
(-93.5302 -35.1698 0)
(-82.8659 -39.6584 0)
(-85.9947 -45.6474 0)
(-60.3383 -48.3114 0)
(-29.3105 -38.0063 0)
(6.37051 -21.6854 0)
(25.9623 -14.1629 0)
(36.115 -15.2195 0)
(34.3047 -12.9356 0)
(21.4371 3.14471 0)
(-32.0733 45.9809 0)
(-93.9975 79.0691 0)
(-129.765 80.9733 0)
(-159.451 60.1648 0)
(-153.474 32.0991 0)
(-143.869 5.85379 0)
(-124.371 -12.5184 0)
(-108.686 -23.6101 0)
(-102.76 -21.8271 0)
(-93.4122 -12.3153 0)
(-76.9007 -7.18513 0)
(-68.0255 -2.49097 0)
(-66.9795 1.43845 0)
(-63.2076 -1.77014 0)
(-61.2274 -4.51685 0)
(-40.838 -5.29322 0)
(216.101 -41.3041 0)
(158.639 -113.524 0)
(162.358 -154.508 0)
(310.561 -123.944 0)
(404.183 -38.423 0)
(477.619 -29.8467 0)
(591.3 -9.49606 0)
(803.581 57.0711 0)
(1021.62 125.753 0)
(1004.87 113.179 0)
(1203.56 86.8416 0)
(1164.77 -40.0905 0)
(1057.93 -90.9162 0)
(1606.38 -152.561 0)
(1385.57 -133.684 0)
(798.445 -94.6462 0)
(1908.53 -24.6383 0)
(2278.03 -69.5203 0)
(1940.03 62.6773 0)
(464.578 626.761 0)
(-570.146 346.802 0)
(-968.879 -112.366 0)
(-2271.74 -263.137 0)
(-888.916 -453.447 0)
(-932.677 -369.287 0)
(1148.93 -401.285 0)
(739.058 125.69 0)
(1406.97 -193.452 0)
(1655.85 -436.786 0)
(1541.47 -313.286 0)
(1188.75 -11.1115 0)
(1077.47 177.179 0)
(999.026 17.9039 0)
(1225.09 -213.976 0)
(947.442 43.3626 0)
(428.228 247.678 0)
(397.494 112.581 0)
(533.67 81.2061 0)
(414.836 32.5137 0)
(418.932 104.207 0)
(468.564 95.7488 0)
(362.044 115.513 0)
(284.541 181.405 0)
(237.569 220.841 0)
(29.6677 222.473 0)
(-19.94 175.094 0)
(156.652 152.778 0)
(325.757 201.835 0)
(447.13 239.282 0)
(408.501 235.602 0)
(361.238 223.77 0)
(309.947 195.588 0)
(197.589 155.369 0)
(107.904 110.043 0)
(-18.4664 53.4174 0)
(-152.442 8.91218 0)
(-218.445 -17.7067 0)
(-280.403 -35.0047 0)
(-298.3 -43.3267 0)
(-334.443 -47.0877 0)
(-329.664 -48.8067 0)
(-338.922 -52.422 0)
(-313.48 -58.4934 0)
(-312.426 -68.5815 0)
(-281.64 -75.1494 0)
(-252.115 -77.2791 0)
(-243.909 -72.8769 0)
(-225.165 -65.4679 0)
(-197.515 -62.9638 0)
(-187.046 -60.468 0)
(-166.869 -53.2758 0)
(-131.841 -39.505 0)
(-114.742 -26.4279 0)
(-108.062 -27.9353 0)
(-95.6833 -36.9051 0)
(-98.7793 -39.3935 0)
(-107.233 -47.4718 0)
(-95.6547 -56.0659 0)
(-43.7276 -46.6981 0)
(-15.9457 -28.6735 0)
(16.8141 -18.0929 0)
(22.3361 -16.2832 0)
(23.0941 -10.2111 0)
(3.74781 11.1754 0)
(-57.1432 60.4045 0)
(-110.713 92.9686 0)
(-152.601 87.9687 0)
(-160.082 62.6573 0)
(-155.097 28.9508 0)
(-135.292 1.8723 0)
(-121.166 -15.9698 0)
(-104.501 -26.225 0)
(-96.1569 -23.5692 0)
(-88.5923 -15.2712 0)
(-78.1854 -10.0278 0)
(-70.5802 -3.5071 0)
(-71.7557 1.14081 0)
(-65.3132 -3.57843 0)
(-60.8598 -7.28263 0)
(-43.9305 -6.10272 0)
(212.491 -71.4103 0)
(156.478 -126.067 0)
(147.641 -176.948 0)
(292.611 -154.309 0)
(413.604 -55.0311 0)
(487.358 -59.477 0)
(605.656 -59.377 0)
(830.066 21.1577 0)
(1044.36 89.3055 0)
(1045.02 84.153 0)
(1247.23 77.4262 0)
(1251.31 -40.7317 0)
(1028.19 -107.037 0)
(1584.64 -208.715 0)
(1377.51 -122.777 0)
(1299.62 -186.471 0)
(2027.72 -149.273 0)
(2057.6 -49.6619 0)
(1676.33 226.233 0)
(505.588 803.327 0)
(641.288 453.364 0)
(785.191 188.044 0)
(-413.133 -179.753 0)
(-203.259 -569.162 0)
(472.717 -682.345 0)
(773.006 -573.163 0)
(970.74 -52.673 0)
(1380.88 -227.042 0)
(1572.23 -434.738 0)
(1346 -227.843 0)
(1039.8 37.6761 0)
(590.031 214.939 0)
(860.812 -29.3351 0)
(1113.85 -222.143 0)
(904.402 144.782 0)
(416.31 318.283 0)
(445.53 91.1551 0)
(491.481 79.7075 0)
(508.518 31.5617 0)
(243.603 121.334 0)
(203.565 103.863 0)
(316.848 97.5274 0)
(355.882 189.587 0)
(275.981 245.082 0)
(235.225 243.714 0)
(155.036 157.448 0)
(150.168 128.556 0)
(154.129 179.165 0)
(350.619 228.197 0)
(322.021 236.849 0)
(314.378 231.922 0)
(288.524 211.961 0)
(257.306 175.831 0)
(202.273 130.09 0)
(84.6682 87.9103 0)
(-31.7784 38.5665 0)
(-146.279 0.121214 0)
(-201.035 -22.8236 0)
(-253.769 -34.3835 0)
(-297.487 -42.4458 0)
(-292.803 -48.2152 0)
(-308.635 -53.9759 0)
(-286.02 -61.0927 0)
(-290.265 -72.4425 0)
(-261.116 -81.2504 0)
(-247.707 -81.332 0)
(-237.659 -76.3418 0)
(-210.141 -70.7746 0)
(-197.278 -66.5688 0)
(-185.31 -64.2637 0)
(-155.836 -59.6931 0)
(-137.982 -44.8243 0)
(-120.003 -29.8175 0)
(-106.346 -30.3224 0)
(-101.246 -37.7835 0)
(-112.673 -36.3229 0)
(-140.667 -47.5395 0)
(-125.164 -64.196 0)
(-76.9009 -57.191 0)
(-30.5125 -37.2078 0)
(-1.97762 -22.8916 0)
(7.05582 -16.9692 0)
(6.99234 -7.5171 0)
(-9.85458 20.7127 0)
(-77.2236 75.2223 0)
(-129.4 103.711 0)
(-161.206 93.7308 0)
(-163.753 60.1872 0)
(-142.718 25.0587 0)
(-130.423 -2.32502 0)
(-111.823 -20.7932 0)
(-97.9918 -29.2839 0)
(-84.0755 -25.2084 0)
(-84.9076 -16.8486 0)
(-76.0469 -11.938 0)
(-73.5707 -3.99813 0)
(-73.0426 0.737657 0)
(-63.0217 -5.58884 0)
(-62.9946 -9.88498 0)
(-42.6566 -6.80495 0)
(208.325 -100.356 0)
(146.258 -138.184 0)
(131.063 -191.7 0)
(281.354 -183.75 0)
(409.578 -74.182 0)
(495.646 -89.8845 0)
(599.545 -108.126 0)
(827.129 -21.5395 0)
(1056.9 59.0043 0)
(1023.46 46.5417 0)
(1272.87 66.7451 0)
(1260.46 -42.2061 0)
(1096.09 -105.127 0)
(1460.61 -227.877 0)
(666.811 -88.4923 0)
(1440.66 -254.833 0)
(2196.45 -221.247 0)
(1646.15 90.0564 0)
(993.884 504.971 0)
(893.407 782.436 0)
(1313.8 434.236 0)
(1554.92 224.704 0)
(840.125 -100.987 0)
(516.991 -640.488 0)
(1254.22 -729.973 0)
(756.728 -539.244 0)
(1222.07 -162.447 0)
(1271.39 -274.679 0)
(1465.69 -432.501 0)
(1153.57 -178.848 0)
(851.439 96.5877 0)
(251.452 277.031 0)
(754.753 -118.637 0)
(1131.44 -252.369 0)
(839.418 222.616 0)
(528.185 349.422 0)
(427.495 75.9202 0)
(427.609 97.6283 0)
(483.379 50.3965 0)
(53.8784 210.116 0)
(-0.632598 68.2712 0)
(-35.322 70.7326 0)
(185.637 195.476 0)
(222.799 269.093 0)
(221.369 252.588 0)
(302.896 168.811 0)
(179.666 142.379 0)
(66.4521 168.481 0)
(195.908 199.393 0)
(216.176 236.2 0)
(212.951 234.605 0)
(224.208 210.823 0)
(225.564 181.966 0)
(222.264 146.322 0)
(161.649 109.741 0)
(43.7919 69.2454 0)
(-59.2279 23.5489 0)
(-146.262 -6.43038 0)
(-213.643 -22.236 0)
(-239.975 -35.1916 0)
(-265.566 -46.5774 0)
(-261.507 -53.3481 0)
(-268.431 -63.1149 0)
(-252.135 -74.6999 0)
(-249.618 -85.5694 0)
(-222.879 -86.1127 0)
(-210.833 -79.9787 0)
(-204.918 -74.7857 0)
(-181.573 -71.3106 0)
(-165.49 -69.0057 0)
(-155.018 -64.7665 0)
(-130.962 -50.2116 0)
(-112.871 -33.0103 0)
(-108.581 -31.786 0)
(-106.951 -35.657 0)
(-134.605 -28.8757 0)
(-172.278 -43.9502 0)
(-171.684 -74.0288 0)
(-99.1214 -69.4122 0)
(-57.9848 -46.9194 0)
(-16.5154 -28.1714 0)
(-8.32181 -18.1496 0)
(-3.43613 -4.43207 0)
(-28.156 31.1399 0)
(-96.8648 87.9039 0)
(-132.143 113.866 0)
(-151.245 96.0218 0)
(-144.593 58.6924 0)
(-138.507 21.3917 0)
(-117.705 -6.28704 0)
(-107.521 -24.6435 0)
(-88.367 -32.5099 0)
(-81.0632 -26.6745 0)
(-77.3342 -17.7261 0)
(-76.2365 -12.8925 0)
(-71.7806 -4.29284 0)
(-70.4541 -0.518014 0)
(-57.9092 -8.43573 0)
(-54.1866 -12.4128 0)
(-39.9717 -7.49893 0)
(206.3 -126.168 0)
(131.571 -147.255 0)
(93.1207 -208.496 0)
(234.224 -220.37 0)
(398.762 -95.4418 0)
(491.096 -119.244 0)
(577.264 -157.332 0)
(806.547 -63.237 0)
(1053.39 30.8579 0)
(972.731 7.10063 0)
(1271.68 52.7498 0)
(1282.5 -55.5894 0)
(1216.79 -82.027 0)
(1473.44 -138.668 0)
(8.22273 -173.49 0)
(1979.81 -558.035 0)
(1719.01 -238.439 0)
(1506.03 214.207 0)
(1022.14 541.818 0)
(1253.57 690.653 0)
(1729.62 378.401 0)
(1697.61 284.992 0)
(1455.44 10.0531 0)
(1097.2 -619.458 0)
(1051.25 -716.539 0)
(903.32 -412.095 0)
(844.769 -151.619 0)
(1434.88 -347.039 0)
(1372.17 -388.345 0)
(944.882 -78.8116 0)
(232.23 242.311 0)
(-1.83221 224.611 0)
(628.785 -225.586 0)
(1134.05 -294.976 0)
(675.97 293.343 0)
(627.822 414.704 0)
(518.207 142.24 0)
(363.519 85.2829 0)
(382.834 80.6083 0)
(112.721 276.056 0)
(78.1105 189.964 0)
(-162.164 50.1116 0)
(9.50863 167.662 0)
(73.7077 239.709 0)
(221.127 222.029 0)
(319.727 172.363 0)
(201.962 177.135 0)
(27.3384 183.372 0)
(85.0101 187.986 0)
(81.2601 222.837 0)
(126.874 232.992 0)
(156.802 210.093 0)
(175.878 176.804 0)
(186.42 152.767 0)
(156.659 127.119 0)
(99.924 93.3209 0)
(-7.49902 49.06 0)
(-105.662 11.8059 0)
(-156.713 -9.38232 0)
(-203.927 -28.154 0)
(-216.54 -43.2987 0)
(-233.117 -52.7158 0)
(-232.017 -62.9257 0)
(-232.854 -77.0986 0)
(-214.171 -89.0883 0)
(-209.819 -88.8152 0)
(-201.422 -82.2569 0)
(-182.78 -78.3977 0)
(-176.093 -74.9792 0)
(-153.509 -72.7971 0)
(-140.169 -68.9071 0)
(-130.838 -54.3864 0)
(-108.701 -36.2573 0)
(-103.9 -31.8702 0)
(-111.312 -30.6374 0)
(-159.194 -18.8686 0)
(-204.591 -39.1578 0)
(-207.325 -82.7342 0)
(-139.801 -84.2364 0)
(-78.4457 -58.2207 0)
(-40.291 -34.7536 0)
(-19.7574 -20.1772 0)
(-20.6729 -1.63316 0)
(-46.1456 41.7471 0)
(-111.561 101.89 0)
(-137.596 120.728 0)
(-156.811 97.9752 0)
(-142.467 55.0944 0)
(-124.645 17.6362 0)
(-112.426 -9.89334 0)
(-97.4825 -28.7283 0)
(-85.9779 -35.3017 0)
(-72.709 -27.8222 0)
(-77.3654 -18.143 0)
(-71.3871 -14.072 0)