/*--------------------------------*- C++ -*----------------------------------*\
| =========                 |                                                 |
| \\      /  F ield         | foam-extend: Open Source CFD                    |
|  \\    /   O peration     | Version:     5.0                                |
|   \\  /    A nd           | Web:         http://www.foam-extend.org         |
|    \\/     M anipulation  |                                                 |
\*---------------------------------------------------------------------------*/
FoamFile
{
    version     2.0;
    format      ascii;
    class       volVectorField;
    location    "0.1";
    object      bodyForce;
}
// * * * * * * * * * * * * * * * * * * * * * * * * * * * * * * * * * * * * * //

dimensions      [0 1 -2 0 0 0 0];

internalField   nonuniform List<vector> 
4000
(
(-147019 0 0)
(-283460 0 0)
(-378451 0 0)
(-422325 0 0)
(-436049 0 0)
(-479087 0 0)
(-501460 0 0)
(-251999 0 0)
(-64471.8 0 0)
(-145519 0 0)
(14333.3 -0 0)
(193272 -0 0)
(324502 -0 0)
(429880 -0 0)
(546188 -0 0)
(494039 -0 0)
(390237 -0 0)
(232343 -0 0)
(-17626.8 0 0)
(-254200 0 0)
(-569726 0 0)
(-619511 0 0)
(-483374 0 0)
(-552058 0 0)
(-722916 0 0)
(-757299 0 0)
(-132392 0 0)
(-637769 0 0)
(-1.31577e+06 0 0)
(-1.13073e+06 0 0)
(-991951 0 0)
(-1.08368e+06 0 0)
(-999238 0 0)
(-907078 0 0)
(-1.0943e+06 0 0)
(-1.07366e+06 0 0)
(-924684 0 0)
(-741861 0 0)
(-655513 0 0)
(-627397 0 0)
(-576702 0 0)
(-587948 0 0)
(-565090 0 0)
(-537235 0 0)
(-466539 0 0)
(-338562 0 0)
(-255382 0 0)
(-174862 0 0)
(-131054 0 0)
(-91088.6 0 0)
(-75485.8 0 0)
(-48635.3 0 0)
(-37004.9 0 0)
(-25694.1 0 0)
(-24979.9 0 0)
(-9757.63 0 0)
(-12132.1 0 0)
(-4129.76 0 0)
(-7334.84 0 0)
(-4435.41 0 0)
(-725.396 0 0)
(-3988.1 0 0)
(1222.25 -0 0)
(777.548 -0 0)
(599.465 -0 0)
(-4048.29 0 0)
(-5092.15 0 0)
(-5763.37 0 0)
(-5582.93 0 0)
(-4117.51 0 0)
(-3262.94 0 0)
(-2712.74 0 0)
(-844.527 0 0)
(1175.75 -0 0)
(2422.11 -0 0)
(1657.14 -0 0)
(1422.99 -0 0)
(-119.103 0 0)
(-1384.03 0 0)
(-2420.65 0 0)
(-4079.41 0 0)
(-2006.81 0 0)
(-2802.88 0 0)
(-661.254 0 0)
(2050.6 -0 0)
(4767.55 -0 0)
(4839.39 -0 0)
(8054.76 -0 0)
(7190.71 -0 0)
(6853.23 -0 0)
(5608.85 -0 0)
(3733.88 -0 0)
(3583.1 -0 0)
(2125.95 -0 0)
(2223.26 -0 0)
(2090.75 -0 0)
(1361.99 -0 0)
(-22.7222 0 0)
(-2065.15 0 0)
(-4036.3 0 0)
(-111086 0 0)
(-388814 0 0)
(-548799 0 0)
(-695792 0 0)
(-647400 0 0)
(-470315 0 0)
(-236309 0 0)
(-42607.6 0 0)
(-60245.8 0 0)
(148412 -0 0)
(509807 -0 0)
(874106 -0 0)
(885317 -0 0)
(995812 -0 0)
(1.06e+06 -0 0)
(943426 -0 0)
(943173 -0 0)
(743639 -0 0)
(415592 -0 0)
(242040 -0 0)
(-294789 0 0)
(-765160 0 0)
(-680977 0 0)
(-835590 0 0)
(-840833 0 0)
(-551956 0 0)
(2692.79 -0 0)
(-75066.5 0 0)
(-147568 0 0)
(-296601 0 0)
(-133115 0 0)
(-285837 0 0)
(-555203 0 0)
(-857507 0 0)
(-1.04802e+06 0 0)
(-957513 0 0)
(-778137 0 0)
(-565026 0 0)
(-424423 0 0)
(-347508 0 0)
(-334966 0 0)
(-384154 0 0)
(-429617 0 0)
(-560128 0 0)
(-553033 0 0)
(-462756 0 0)
(-338170 0 0)
(-229257 0 0)
(-143689 0 0)
(-110993 0 0)
(-78768.5 0 0)
(-69642 0 0)
(-43823.3 0 0)
(-39980 0 0)
(-26214.5 0 0)
(-30058.9 0 0)
(-16103.7 0 0)
(-22544.4 0 0)
(-16208.8 0 0)
(-2779.33 0 0)
(-12686 0 0)
(-2637.71 0 0)
(-9281.17 0 0)
(2648.28 -0 0)
(-1016.32 0 0)
(-11808.4 0 0)
(-7091.57 0 0)
(-10213.6 0 0)
(-11852.4 0 0)
(-9178.49 0 0)
(-7082.8 0 0)
(-5758.56 0 0)
(-1588.84 0 0)
(1596.5 -0 0)
(4750.55 -0 0)
(2932.98 -0 0)
(3507.99 -0 0)
(-5181.14 0 0)
(-4688.14 0 0)
(-4878.82 0 0)
(-11351.8 0 0)
(-5286.81 0 0)
(-10869.7 0 0)
(101.634 -0 0)
(1944.69 -0 0)
(1440.68 -0 0)
(11498.7 -0 0)
(11500.8 -0 0)
(17047.6 -0 0)
(13398.8 -0 0)
(12821.7 -0 0)
(7518.78 -0 0)
(6497.45 -0 0)
(5057.88 -0 0)
(4678.9 -0 0)
(3929.62 -0 0)
(2210.36 -0 0)
(-722.891 0 0)
(-4117.26 0 0)
(-6174.03 0 0)
(-5223.64 0 0)
(-351995 0 0)
(-386998 0 0)
(-569125 0 0)
(-652402 0 0)
(-514950 0 0)
(-161218 0 0)
(-39007.7 0 0)
(-450227 0 0)
(205261 -0 0)
(478049 -0 0)
(662466 -0 0)
(701499 -0 0)
(788542 -0 0)
(776317 -0 0)
(425989 -0 0)
(379732 -0 0)
(566795 -0 0)
(514185 -0 0)
(502933 -0 0)
(146295 -0 0)
(62915.4 -0 0)
(18424.1 -0 0)
(-562311 0 0)
(-314627 0 0)
(-824652 0 0)
(151021 -0 0)
(6135.63 -0 0)
(-112210 0 0)
(-156300 0 0)
(-1823.29 0 0)
(-154648 0 0)
(-366664 0 0)
(-601517 0 0)
(-519339 0 0)
(-285968 0 0)
(-92900.1 0 0)
(-16805 0 0)
(62829.3 -0 0)
(84800.6 -0 0)
(23833.8 -0 0)
(-32823.6 0 0)
(-164445 0 0)
(-313599 0 0)
(-408878 0 0)
(-392980 0 0)
(-345043 0 0)
(-236627 0 0)
(-160680 0 0)
(-95642.3 0 0)
(-79928.8 0 0)
(-54432.5 0 0)
(-50147.9 0 0)
(-28740.7 0 0)
(-33214.9 0 0)
(-29313.1 0 0)
(-12413.5 0 0)
(-19957 0 0)
(-9498.01 0 0)
(-17729.2 0 0)
(-5581.42 0 0)
(-6853.81 0 0)
(-20652.6 0 0)
(-9405.43 0 0)
(-18744.3 0 0)
(-8476.24 0 0)
(-11807.4 0 0)
(-22176.6 0 0)
(-10408 0 0)
(-15709.6 0 0)
(-9887.15 0 0)
(-10016.5 0 0)
(-3027.14 0 0)
(-457.101 0 0)
(2057 -0 0)
(2325.41 -0 0)
(-3155 0 0)
(-5614.4 0 0)
(-14767 0 0)
(-12003.6 0 0)
(-9871.22 0 0)
(-13060.5 0 0)
(-14252.8 0 0)
(-3719.01 0 0)
(-6067.08 0 0)
(4860.22 -0 0)
(5853.97 -0 0)
(13892.8 -0 0)
(14939.3 -0 0)
(14476.1 -0 0)
(11816.5 -0 0)
(8698.13 -0 0)
(6797.25 -0 0)
(5857.01 -0 0)
(5196.01 -0 0)
(3668.53 -0 0)
(1775.85 -0 0)
(-1597.93 0 0)
(-4117.08 0 0)
(-6453.13 0 0)
(45114.4 -0 0)
(-298291 0 0)
(-308974 0 0)
(-438192 0 0)
(-595638 0 0)
(-600099 0 0)
(-233159 0 0)
(-4698.38 0 0)
(-451674 0 0)
(-43906.2 0 0)
(399580 -0 0)
(-127473 0 0)
(-105780 0 0)
(369373 -0 0)
(356214 -0 0)
(-121390 0 0)
(-211119 0 0)
(24541.3 -0 0)
(44534.7 -0 0)
(331590 -0 0)
(445495 -0 0)
(425404 -0 0)
(322074 -0 0)
(-54459.9 0 0)
(-403580 0 0)
(-760237 0 0)
(189552 -0 0)
(197079 -0 0)
(-239954 0 0)
(-419921 0 0)
(-161003 0 0)
(-242600 0 0)
(-462885 0 0)
(-132578 0 0)
(-253819 0 0)
(-16436.8 0 0)
(46974.8 -0 0)
(152771 -0 0)
(180756 -0 0)
(168840 -0 0)
(178890 -0 0)
(139929 -0 0)
(94073.1 -0 0)
(15799.9 -0 0)
(-51459.9 0 0)
(-189832 0 0)
(-285894 0 0)
(-242742 0 0)
(-170079 0 0)
(-111917 0 0)
(-65899.9 0 0)
(-55750.9 0 0)
(-32126.6 0 0)
(-29951.7 0 0)
(-12674.1 0 0)
(-18099.3 0 0)
(-9173.92 0 0)
(-17283.7 0 0)
(-10330.8 0 0)
(-20708.8 0 0)
(-13072.5 0 0)
(-21438 0 0)
(-15540.2 0 0)
(-25217.6 0 0)
(-26579.7 0 0)
(-13810.5 0 0)
(-21856 0 0)
(-20606.6 0 0)
(-9912.43 0 0)
(-15272.1 0 0)
(-16266.9 0 0)
(-10322.1 0 0)
(-6911.44 0 0)
(-825.721 0 0)
(-1062.23 0 0)
(-1177.89 0 0)
(-3864.74 0 0)
(-11874.5 0 0)
(-13343.8 0 0)
(-20222.3 0 0)
(-13645.2 0 0)
(-17336.1 0 0)
(-9668.57 0 0)
(-11552.4 0 0)
(-1971.92 0 0)
(1435.85 -0 0)
(8738.06 -0 0)
(11611.7 -0 0)
(14552.7 -0 0)
(13857.6 -0 0)
(10849.9 -0 0)
(7569.27 -0 0)
(7325.24 -0 0)
(5942.96 -0 0)
(4577.25 -0 0)
(2378.33 -0 0)
(1253.77 -0 0)
(-1122 0 0)
(-3304.81 0 0)
(-3937.43 0 0)
(34915.8 -0 0)
(-234280 0 0)
(-226256 0 0)
(-318869 0 0)
(-436875 0 0)
(-538550 0 0)
(-337330 0 0)
(-180218 0 0)
(-561947 0 0)
(-32616.8 0 0)
(219664 -0 0)
(-410564 0 0)
(-823931 0 0)
(-856068 0 0)
(-215781 0 0)
(-94240.7 0 0)
(-18961.6 0 0)
(-391723 0 0)
(45354.2 -0 0)
(249702 -0 0)
(429617 -0 0)
(444657 -0 0)
(421970 -0 0)
(217760 -0 0)
(-428433 0 0)
(-530373 0 0)
(-231696 0 0)
(-233884 0 0)
(-325885 0 0)
(-381994 0 0)
(-361181 0 0)
(-332569 0 0)
(-788979 0 0)
(-237903 0 0)
(47742.7 -0 0)
(26276.4 -0 0)
(-11396.7 0 0)
(38419.8 -0 0)
(115095 -0 0)
(163275 -0 0)
(181881 -0 0)
(206296 -0 0)
(165132 -0 0)
(141225 -0 0)
(112073 -0 0)
(36543.4 -0 0)
(-71831.8 0 0)
(-171643 0 0)
(-161867 0 0)
(-110185 0 0)
(-72022.7 0 0)
(-38249.9 0 0)
(-36061.3 0 0)
(-13483.2 0 0)
(-18142.1 0 0)
(-3188.6 0 0)
(-12528.9 0 0)
(-5554.34 0 0)
(-14980.5 0 0)
(-10037.5 0 0)
(-20437.8 0 0)
(-12808.6 0 0)
(-21647.1 0 0)
(-16298.3 0 0)
(-25753.6 0 0)
(-20809.7 0 0)
(-12148.9 0 0)
(-10525.3 0 0)
(-16703.9 0 0)
(-24534.6 0 0)
(-12847.5 0 0)
(-16643.2 0 0)
(-5366.24 0 0)
(-4689.97 0 0)
(-852.128 0 0)
(-3571.84 0 0)
(-6629.07 0 0)
(-10947 0 0)
(-18600.8 0 0)
(-17519.1 0 0)
(-21038.1 0 0)
(-14658.9 0 0)
(-15236.2 0 0)
(-7324.63 0 0)
(-7687.53 0 0)
(3220.13 -0 0)
(7034.13 -0 0)
(11170.6 -0 0)
(16644.1 -0 0)
(12212.7 -0 0)
(14676.9 -0 0)
(2816.22 -0 0)
(6549.59 -0 0)
(6348.4 -0 0)
(4284.65 -0 0)
(829.223 -0 0)
(717.171 -0 0)
(-1747.36 0 0)
(-5745.9 0 0)
(-4091.88 0 0)
(12730.9 -0 0)
(-184072 0 0)
(-151869 0 0)
(-218705 0 0)
(-358475 0 0)
(-468230 0 0)
(-360387 0 0)
(-179663 0 0)
(-415954 0 0)
(-110939 0 0)
(23972.6 -0 0)
(-301154 0 0)
(-443286 0 0)
(-668180 0 0)
(-362003 0 0)
(-154944 0 0)
(254472 -0 0)
(348666 -0 0)
(328427 -0 0)
(196407 -0 0)
(417833 -0 0)
(439364 -0 0)
(337255 -0 0)
(58884.7 -0 0)
(36102.1 -0 0)
(-126362 0 0)
(-678676 0 0)
(-323792 0 0)
(-300085 0 0)
(-866606 0 0)
(-440576 0 0)
(-252922 0 0)
(-326892 0 0)
(-78598.3 0 0)
(84226.6 -0 0)
(24253.8 -0 0)
(-96045.6 0 0)
(-203957 0 0)
(-13430.5 0 0)
(46996.8 -0 0)
(146013 -0 0)
(199300 -0 0)
(198634 -0 0)
(182249 -0 0)
(180449 -0 0)
(164510 -0 0)
(80440.1 -0 0)
(-32970.5 0 0)
(-108871 0 0)
(-105349 0 0)
(-68357.1 0 0)
(-34820.9 0 0)
(-31564.9 0 0)
(-9698.36 0 0)
(-12875.9 0 0)
(1091.2 -0 0)
(-1083.12 0 0)
(-9834.46 0 0)
(-1329.13 0 0)
(-13862.7 0 0)
(-7563.38 0 0)
(-17282.6 0 0)
(-11415 0 0)
(-24986.3 0 0)
(-21817.3 0 0)
(-11907.7 0 0)
(-22195.8 0 0)
(-15019.7 0 0)
(-25582.1 0 0)
(-23534 0 0)
(-14789.9 0 0)
(-18444.3 0 0)
(-9982.41 0 0)
(-2543.89 0 0)
(-4327.8 0 0)
(-3164.17 0 0)
(-7802.06 0 0)
(-13486.4 0 0)
(-16402.2 0 0)
(-22153 0 0)
(-18234.3 0 0)
(-19450.7 0 0)
(-11628.8 0 0)
(-12234.3 0 0)
(-2646.08 0 0)
(1365.77 -0 0)
(6739.26 -0 0)
(14257 -0 0)
(13591.3 -0 0)
(19213.2 -0 0)
(14469.2 -0 0)
(2378.78 -0 0)
(2672.82 -0 0)
(4064.01 -0 0)
(650.191 -0 0)
(-1736.51 0 0)
(402.586 -0 0)
(-4393.61 0 0)
(-6457.61 0 0)
(-3485.51 0 0)
(-19329.9 0 0)
(-132404 0 0)
(-96570.2 0 0)
(-152344 0 0)
(-260169 0 0)
(-426381 0 0)
(-398810 0 0)
(-243727 0 0)
(-265901 0 0)
(-182908 0 0)
(-98953.8 0 0)
(-170388 0 0)
(-223229 0 0)
(-267716 0 0)
(-250279 0 0)
(-226204 0 0)
(99538.2 -0 0)
(400339 -0 0)
(363384 -0 0)
(157403 -0 0)
(246832 -0 0)
(308604 -0 0)
(314791 -0 0)
(-235265 0 0)
(-71108.3 0 0)
(46698.9 -0 0)
(-572962 0 0)
(-107535 0 0)
(206161 -0 0)
(-44177.2 0 0)
(-623421 0 0)
(-225904 0 0)
(52805.7 -0 0)
(93335.7 -0 0)
(144298 -0 0)
(52679.7 -0 0)
(-228806 0 0)
(-247268 0 0)
(-196210 0 0)
(-87221 0 0)
(30397.1 -0 0)
(134811 -0 0)
(177902 -0 0)
(180969 -0 0)
(208160 -0 0)
(206746 -0 0)
(176504 -0 0)
(99844.5 -0 0)
(-4229.87 0 0)
(-60216.4 0 0)
(-52132.6 0 0)
(-35483.8 0 0)
(-21792.1 0 0)
(-23765.2 0 0)
(-7063.43 0 0)
(-12707.2 0 0)
(-957.845 0 0)
(-6947.77 0 0)
(1609.31 -0 0)
(-1651.15 0 0)
(-8788.79 0 0)
(-1653.51 0 0)
(-8350.68 0 0)
(-20663.4 0 0)
(-12386.1 0 0)
(-20194.5 0 0)
(-15545.1 0 0)
(-20788.6 0 0)
(-15492.5 0 0)
(-15857.1 0 0)
(-20914.4 0 0)
(-16014.3 0 0)
(-6189.14 0 0)
(-6510.1 0 0)
(-1993.45 0 0)
(-5055.61 0 0)
(-7113.84 0 0)
(-13496.8 0 0)
(-19068.3 0 0)
(-18917.7 0 0)
(-22291.3 0 0)
(-16448.9 0 0)
(-15353.1 0 0)
(-9628.75 0 0)
(-4323.45 0 0)
(1387.92 -0 0)
(10154.2 -0 0)
(12741.7 -0 0)
(18522.7 -0 0)
(18331.6 -0 0)
(6600.43 -0 0)
(9514.31 -0 0)
(6709.72 -0 0)
(-717.928 0 0)
(1871.89 -0 0)
(-2935.34 0 0)
(-966.847 0 0)
(-1557.51 0 0)
(-5283 0 0)
(-1619.63 0 0)
(-61258.1 0 0)
(-77135.4 0 0)
(-42546.8 0 0)
(-77924 0 0)
(-203486 0 0)
(-377896 0 0)
(-438864 0 0)
(-322448 0 0)
(-234786 0 0)
(-155209 0 0)
(-138382 0 0)
(-151972 0 0)
(-202518 0 0)
(-155932 0 0)
(-144635 0 0)
(-146384 0 0)
(-97864.8 0 0)
(235014 -0 0)
(164595 -0 0)
(20549.3 -0 0)
(-261382 0 0)
(-22164.7 0 0)
(86676.6 -0 0)
(-357595 0 0)
(-155257 0 0)
(-8350.13 0 0)
(-435463 0 0)
(-444645 0 0)
(110817 -0 0)
(276497 -0 0)
(76364.4 -0 0)
(-9370.66 0 0)
(146138 -0 0)
(141891 -0 0)
(136045 -0 0)
(41867.8 -0 0)
(-173801 0 0)
(-78871.8 0 0)
(-198640 0 0)
(-116260 0 0)
(-152.722 0 0)
(-21508 0 0)
(55115.1 -0 0)
(175967 -0 0)
(192742 -0 0)
(218178 -0 0)
(198497 -0 0)
(146239 -0 0)
(99019.5 -0 0)
(18976.9 -0 0)
(-19217 0 0)
(-28399.6 0 0)
(-25424.2 0 0)
(-17140.3 0 0)
(-21736.3 0 0)
(-6763.61 0 0)
(-11384.2 0 0)
(-3542.41 0 0)
(-12304.4 0 0)
(-9558.74 0 0)
(1697.76 -0 0)
(-4206.96 0 0)
(-16915.2 0 0)
(-9575.38 0 0)
(-17488.3 0 0)
(-14803.3 0 0)
(-20282.6 0 0)
(-14759.8 0 0)
(-20622.3 0 0)
(-20598.3 0 0)
(-17623.5 0 0)
(-8038.46 0 0)
(-11155.1 0 0)
(-2887.45 0 0)
(-4933.63 0 0)
(-2256.6 0 0)
(-7323.03 0 0)
(-13163.9 0 0)
(-18096.1 0 0)
(-21494.1 0 0)
(-19100.5 0 0)
(-19696.4 0 0)
(-11472.4 0 0)
(-10379.7 0 0)
(-2379.44 0 0)
(2390.28 -0 0)
(8520.67 -0 0)
(17960.6 -0 0)
(10456.7 -0 0)
(8144.86 -0 0)
(13645.7 -0 0)
(3020.35 -0 0)
(3033.66 -0 0)
(2137.3 -0 0)
(4552.27 -0 0)
(-436.369 0 0)
(-2244.45 0 0)
(1537.58 -0 0)
(-2792.59 0 0)
(508.275 -0 0)
(-92083.3 0 0)
(-23102.4 0 0)
(17111.3 -0 0)
(-28858.7 0 0)
(-137104 0 0)
(-338687 0 0)
(-472529 0 0)
(-424519 0 0)
(-302079 0 0)
(-221904 0 0)
(-227467 0 0)
(-300585 0 0)
(-318343 0 0)
(-259981 0 0)
(-206527 0 0)
(-215068 0 0)
(-252894 0 0)
(-18257.8 0 0)
(-66429.8 0 0)
(-106161 0 0)
(-103818 0 0)
(-115023 0 0)
(185599 -0 0)
(309903 -0 0)
(-8000.44 0 0)
(-84402.7 0 0)
(-77611.9 0 0)
(-113902 0 0)
(182199 -0 0)
(361842 -0 0)
(239867 -0 0)
(170430 -0 0)
(196423 -0 0)
(140637 -0 0)
(101370 -0 0)
(-17967.2 0 0)
(24015.1 -0 0)
(34327.6 -0 0)
(-46094.6 0 0)
(-18561.9 0 0)
(31661.1 -0 0)
(15342.3 -0 0)
(100659 -0 0)
(122431 -0 0)
(182542 -0 0)
(204634 -0 0)
(186770 -0 0)
(172322 -0 0)
(129197 -0 0)
(90590.9 -0 0)
(19051.6 -0 0)
(-2668.41 0 0)
(-20781.4 0 0)
(-24722.1 0 0)
(-13101.5 0 0)
(-17922.9 0 0)
(-4727.58 0 0)
(-10246.3 0 0)
(-2988.05 0 0)
(-10876.7 0 0)
(-3946.68 0 0)
(-11591 0 0)
(-5700.47 0 0)
(-13135.9 0 0)
(-10481.6 0 0)
(-21827.6 0 0)
(-14423.5 0 0)
(-17703.2 0 0)
(-11075.8 0 0)
(-15173.7 0 0)
(-10919.3 0 0)
(-12266.5 0 0)
(-6740.08 0 0)
(-6890.69 0 0)
(-1225.36 0 0)
(-3134.28 0 0)
(-3970.69 0 0)
(-12300.9 0 0)
(-18833.8 0 0)
(-19853 0 0)
(-21860.7 0 0)
(-16429.9 0 0)
(-13500.5 0 0)
(-7778.04 0 0)
(-3062.23 0 0)
(1451.88 -0 0)
(14068.4 -0 0)
(12906.7 -0 0)
(15399.4 -0 0)
(5169.89 -0 0)
(13253.2 -0 0)
(9051.61 -0 0)
(8902.77 -0 0)
(892.883 -0 0)
(4913.43 -0 0)
(-1999.49 0 0)
(1854.27 -0 0)
(-2941.34 0 0)
(-2606.66 0 0)
(243.226 -0 0)
(-33940.5 0 0)
(35541.4 -0 0)
(57522.3 -0 0)
(30413.3 -0 0)
(-102378 0 0)
(-269682 0 0)
(-488778 0 0)
(-504961 0 0)
(-394682 0 0)
(-298507 0 0)
(-345958 0 0)
(-405719 0 0)
(-393640 0 0)
(-301285 0 0)
(-301600 0 0)
(-264887 0 0)
(-342096 0 0)
(-197584 0 0)
(-260840 0 0)
(-329534 0 0)
(-131883 0 0)
(328706 -0 0)
(650755 -0 0)
(497320 -0 0)
(342827 -0 0)
(141607 -0 0)
(68842.3 -0 0)
(70851.5 -0 0)
(253314 -0 0)
(374127 -0 0)
(326728 -0 0)
(200869 -0 0)
(255549 -0 0)
(112199 -0 0)
(152829 -0 0)
(-62850.5 0 0)
(102192 -0 0)
(56763.9 -0 0)
(696.698 -0 0)
(79477.2 -0 0)
(117894 -0 0)
(11280.4 -0 0)
(45722.4 -0 0)
(109948 -0 0)
(161711 -0 0)
(170985 -0 0)
(200169 -0 0)
(161552 -0 0)
(150484 -0 0)
(109732 -0 0)
(70877.3 -0 0)
(21016.8 -0 0)
(-5029.27 0 0)
(-16888.8 0 0)
(-21705.7 0 0)
(-12844.9 0 0)
(-13858.8 0 0)
(-4300.98 0 0)
(-9750.79 0 0)
(-4743.42 0 0)
(-11305.8 0 0)
(-5509.58 0 0)
(-9742.6 0 0)
(-4398.71 0 0)
(-10899.6 0 0)
(-21824.3 0 0)
(-18311.3 0 0)
(-11793 0 0)
(-13599.8 0 0)
(-6968.31 0 0)
(-14872.5 0 0)
(-6332.38 0 0)
(-11108.2 0 0)
(-2726.17 0 0)
(-3766.94 0 0)
(1471.15 -0 0)
(-2846.8 0 0)
(-8817.32 0 0)
(-18026.5 0 0)
(-19181 0 0)
(-21007.8 0 0)
(-18156.1 0 0)
(-10288.5 0 0)
(-7081.14 0 0)
(-4659.17 0 0)
(6310.57 -0 0)
(11342 -0 0)
(17413 -0 0)
(8643.47 -0 0)
(10847 -0 0)
(2040.81 -0 0)
(1185.24 -0 0)
(4770.57 -0 0)
(6654.66 -0 0)
(252.182 -0 0)
(2727.59 -0 0)
(-2294.07 0 0)
(366.856 -0 0)
(-4755.4 0 0)
(300.472 -0 0)
(67239.4 -0 0)
(78596.2 -0 0)
(94719.8 -0 0)
(74691.4 -0 0)
(-44990.6 0 0)
(-203062 0 0)
(-386505 0 0)
(-526460 0 0)
(-441113 0 0)
(-350076 0 0)
(-386359 0 0)
(-467929 0 0)
(-414653 0 0)
(-298204 0 0)
(-323973 0 0)
(-174874 0 0)
(-201297 0 0)
(-194887 0 0)
(-170028 0 0)
(-81671.6 0 0)
(-295090 0 0)
(478335 -0 0)
(281479 -0 0)
(437930 -0 0)
(560384 -0 0)
(494437 -0 0)
(240617 -0 0)
(156731 -0 0)
(351848 -0 0)
(365078 -0 0)
(347024 -0 0)
(179544 -0 0)
(237346 -0 0)
(95685.1 -0 0)
(119023 -0 0)
(-8282.31 0 0)
(110037 -0 0)
(6640.98 -0 0)
(-2390.3 0 0)
(54960.8 -0 0)
(150741 -0 0)
(115596 -0 0)
(95614.4 -0 0)
(67867.1 -0 0)
(117792 -0 0)
(132507 -0 0)
(146659 -0 0)
(146199 -0 0)
(144413 -0 0)
(128382 -0 0)
(86747.8 -0 0)
(44459.6 -0 0)
(18822.4 -0 0)
(-8512 0 0)
(-16068 0 0)
(-17597.9 0 0)
(-9453.4 0 0)
(-13137.4 0 0)
(-3248.84 0 0)
(-14311.1 0 0)
(-5562.08 0 0)
(-15212.7 0 0)
(-3894.39 0 0)
(-7298.63 0 0)
(-19294.3 0 0)
(-11937.8 0 0)
(-10316.4 0 0)
(-16201.5 0 0)
(-9343.46 0 0)
(-6838.2 0 0)
(-13827.9 0 0)
(-7151.85 0 0)
(-6364.34 0 0)
(-6758.21 0 0)
(750.141 -0 0)
(1551.55 -0 0)
(3158.48 -0 0)
(-6441.28 0 0)
(-15799 0 0)
(-17673.4 0 0)
(-19064.1 0 0)
(-14732.9 0 0)
(-11679.8 0 0)
(-7589.69 0 0)
(-2099.92 0 0)
(6021.4 -0 0)
(17011.1 -0 0)
(11746.2 -0 0)
(13058.8 -0 0)
(4485.85 -0 0)
(9449.28 -0 0)
(3649.99 -0 0)
(9097.47 -0 0)
(3023.79 -0 0)
(4946.34 -0 0)
(-950.58 0 0)
(1586.42 -0 0)
(-5218.46 0 0)
(-7110.35 0 0)
(-981.969 0 0)
(134897 -0 0)
(106454 -0 0)
(117904 -0 0)
(133495 -0 0)
(-5335.47 0 0)
(-110632 0 0)
(-243768 0 0)
(-408166 0 0)
(-479563 0 0)
(-327122 0 0)
(-383333 0 0)
(-428065 0 0)
(-412239 0 0)
(-270952 0 0)
(-226914 0 0)
(-28643.4 0 0)
(11485.9 -0 0)
(21861.2 -0 0)
(-196945 0 0)
(196687 -0 0)
(237670 -0 0)
(276388 -0 0)
(-113655 0 0)
(627509 -0 0)
(498455 -0 0)
(579398 -0 0)
(354977 -0 0)
(251534 -0 0)
(410993 -0 0)
(323770 -0 0)
(264544 -0 0)
(193632 -0 0)
(204727 -0 0)
(87964 -0 0)
(58381.3 -0 0)
(144144 -0 0)
(101682 -0 0)
(9695.35 -0 0)
(-14889.8 0 0)
(56818.9 -0 0)
(151345 -0 0)
(110484 -0 0)
(151006 -0 0)
(143779 -0 0)
(132264 -0 0)
(105274 -0 0)
(94628.3 -0 0)
(141736 -0 0)
(147195 -0 0)
(129912 -0 0)
(94983.8 -0 0)
(58946 -0 0)
(24893.6 -0 0)
(1802.44 -0 0)
(-2293.88 0 0)
(-13399.2 0 0)
(-17778.8 0 0)
(-13832.1 0 0)
(-3394.84 0 0)
(-14260.9 0 0)
(-8639.5 0 0)
(-17011 0 0)
(-9888.17 0 0)
(-16648.3 0 0)
(-13063.7 0 0)
(-18171.5 0 0)
(-16057.5 0 0)
(-11838.1 0 0)
(-15547.4 0 0)
(-12509 0 0)
(-9820.82 0 0)
(-13220.7 0 0)
(-10388.5 0 0)
(-2549.05 0 0)
(-1642.01 0 0)
(8115.05 -0 0)
(4149.04 -0 0)
(659.34 -0 0)
(-14488.9 0 0)
(-15566 0 0)
(-16376.3 0 0)
(-14211.3 0 0)
(-10593.9 0 0)
(-8313.67 0 0)
(-2244.89 0 0)
(13206.6 -0 0)
(20990.3 -0 0)
(15601.2 -0 0)
(7496.52 -0 0)
(12387.5 -0 0)
(5487.65 -0 0)
(9178.78 -0 0)
(5502.03 -0 0)
(8167.7 -0 0)
(1987.13 -0 0)
(3529.94 -0 0)
(-2841.67 0 0)
(-1608.04 0 0)
(-6434.07 0 0)
(-894.162 0 0)
(169739 -0 0)
(119944 -0 0)
(139141 -0 0)
(180980 -0 0)
(61725.6 -0 0)
(-24198.9 0 0)
(-100893 0 0)
(-251735 0 0)
(-402033 0 0)
(-275904 0 0)
(-308411 0 0)
(-340193 0 0)
(-330317 0 0)
(-364067 0 0)
(-109749 0 0)
(234812 -0 0)
(170419 -0 0)
(148531 -0 0)
(70196.6 -0 0)
(441915 -0 0)
(422864 -0 0)
(12490.3 -0 0)
(186674 -0 0)
(534525 -0 0)
(614289 -0 0)
(598088 -0 0)
(480534 -0 0)
(382076 -0 0)
(403733 -0 0)
(175755 -0 0)
(70152 -0 0)
(238514 -0 0)
(220141 -0 0)
(150306 -0 0)
(112196 -0 0)
(249593 -0 0)
(130019 -0 0)
(25805.1 -0 0)
(-26217.2 0 0)
(120196 -0 0)
(95395.5 -0 0)
(72196.4 -0 0)
(120594 -0 0)
(159942 -0 0)
(197818 -0 0)
(132503 -0 0)
(78306.9 -0 0)
(132187 -0 0)
(148050 -0 0)
(132001 -0 0)
(95336.5 -0 0)
(58940.3 -0 0)
(31652.7 -0 0)
(13773.4 -0 0)
(-2672.99 0 0)
(-2525.5 0 0)
(-8779.15 0 0)
(-4949.88 0 0)
(-12384.1 0 0)
(-8568.08 0 0)
(-16434.3 0 0)
(-11518.7 0 0)
(-16664.5 0 0)
(-12953.5 0 0)
(-16885 0 0)
(-13495.3 0 0)
(-12268 0 0)
(-14958.5 0 0)
(-10308.4 0 0)
(-9061.63 0 0)
(-13483.3 0 0)
(-8266.8 0 0)
(-5006.34 0 0)
(-5915.71 0 0)
(2340.97 -0 0)
(7694.04 -0 0)
(12899.2 -0 0)
(3290.78 -0 0)
(-9328.51 0 0)
(-14453.6 0 0)
(-14924.9 0 0)
(-13426.7 0 0)
(-11307.5 0 0)
(-8976.76 0 0)
(2404.3 -0 0)
(10314.4 -0 0)
(14362.6 -0 0)
(9963.33 -0 0)
(12851 -0 0)
(6702.44 -0 0)
(11067.3 -0 0)
(6163.54 -0 0)
(9776.21 -0 0)
(5265.77 -0 0)
(7064.66 -0 0)
(-253.087 0 0)
(2683.95 -0 0)
(-6331.15 0 0)
(-2874.01 0 0)
(-773.689 0 0)
(177892 -0 0)
(123210 -0 0)
(161804 -0 0)
(243729 -0 0)
(117792 -0 0)
(53209.9 -0 0)
(28988.2 -0 0)
(-73723.1 0 0)
(-257920 0 0)
(-173163 0 0)
(-212004 0 0)
(-180250 0 0)
(-145720 0 0)
(-268097 0 0)
(39722.6 -0 0)
(311706 -0 0)
(363263 -0 0)
(225527 -0 0)
(301449 -0 0)
(498475 -0 0)
(464302 -0 0)
(395373 -0 0)
(423089 -0 0)
(481606 -0 0)
(712246 -0 0)
(645167 -0 0)
(577015 -0 0)
(420232 -0 0)
(312044 -0 0)
(234541 -0 0)
(-71558.2 0 0)
(225279 -0 0)
(260817 -0 0)
(197887 -0 0)
(162563 -0 0)
(281162 -0 0)
(145634 -0 0)
(40462.6 -0 0)
(-372.271 0 0)
(198281 -0 0)
(3397.4 -0 0)
(-172576 0 0)
(78335.5 -0 0)
(143046 -0 0)
(191293 -0 0)
(136888 -0 0)
(94443.4 -0 0)
(124137 -0 0)
(142596 -0 0)
(137686 -0 0)
(95028.2 -0 0)
(63389.3 -0 0)
(33693 -0 0)
(18234.8 -0 0)
(7734.92 -0 0)
(-2556.45 0 0)
(-5878.95 0 0)
(-8018.67 0 0)
(-6641.61 0 0)
(-16533.2 0 0)
(-12362.4 0 0)
(-18097.2 0 0)
(-12208.6 0 0)
(-18055.2 0 0)
(-14782.8 0 0)
(-19120.2 0 0)
(-15809.2 0 0)
(-11777.6 0 0)
(-14778.8 0 0)
(-10867.3 0 0)
(-11627.1 0 0)
(-13514.8 0 0)
(-6158.82 0 0)
(-1250.06 0 0)
(-1597.31 0 0)
(17090.3 -0 0)
(8906.05 -0 0)
(12842.9 -0 0)
(-6676.85 0 0)
(-9895.03 0 0)
(-14077.1 0 0)
(-12327.3 0 0)
(-11927.7 0 0)
(-6096.06 0 0)
(1295.22 -0 0)
(9115.94 -0 0)
(18268 -0 0)
(13309.2 -0 0)
(7484.59 -0 0)
(12882.9 -0 0)
(7430.88 -0 0)
(10405.9 -0 0)
(7190.13 -0 0)
(10254.8 -0 0)
(4434.11 -0 0)
(3318.68 -0 0)
(2036.98 -0 0)
(-6513.01 0 0)
(-7705.32 0 0)
(-4421.98 0 0)
(181336 -0 0)
(115890 -0 0)
(177906 -0 0)
(292799 -0 0)
(197935 -0 0)
(154449 -0 0)
(127470 -0 0)
(54591.6 -0 0)
(-96898.1 0 0)
(-79955.4 0 0)
(-27952.3 0 0)
(-46962.1 0 0)
(92933.8 -0 0)
(-5916.27 0 0)
(-24797.1 0 0)
(407795 -0 0)
(438553 -0 0)
(299634 -0 0)
(423148 -0 0)
(572434 -0 0)
(477218 -0 0)
(463163 -0 0)
(488602 -0 0)
(484858 -0 0)
(740021 -0 0)
(658358 -0 0)
(545416 -0 0)
(450062 -0 0)
(270938 -0 0)
(127736 -0 0)
(57004.6 -0 0)
(63086.2 -0 0)
(326375 -0 0)
(172728 -0 0)
(186587 -0 0)
(312946 -0 0)
(96154.8 -0 0)
(77479.5 -0 0)
(78953.7 -0 0)
(221003 -0 0)
(135257 -0 0)
(-256686 0 0)
(-41383.4 0 0)
(89491.7 -0 0)
(158275 -0 0)
(103903 -0 0)
(102778 -0 0)
(122501 -0 0)
(132251 -0 0)
(128254 -0 0)
(95421 -0 0)
(54061.3 -0 0)
(30190.5 -0 0)
(17405.3 -0 0)
(7385.89 -0 0)
(4640.24 -0 0)
(-4099.72 0 0)
(-7368.81 0 0)
(-12741.5 0 0)
(-11847.3 0 0)
(-19403 0 0)
(-14735.7 0 0)
(-18157.1 0 0)
(-15225 0 0)
(-18189.2 0 0)
(-16775.7 0 0)
(-12141.1 0 0)
(-14573.3 0 0)
(-11711.6 0 0)
(-15137.6 0 0)
(-16186.7 0 0)
(-11846.7 0 0)
(-11778.2 0 0)
(-2478.27 0 0)
(160.089 -0 0)
(18452 -0 0)
(11207.6 -0 0)
(12828.9 -0 0)
(1234.86 -0 0)
(-9068.14 0 0)
(-10362.6 0 0)
(-12477.4 0 0)
(-9822.58 0 0)
(-5387.79 0 0)
(7937.85 -0 0)
(15096.5 -0 0)
(19422.9 -0 0)
(8656.87 -0 0)
(12902.9 -0 0)
(7901.76 -0 0)
(12238 -0 0)
(7893.75 -0 0)
(11133.1 -0 0)
(7638.93 -0 0)
(9744.36 -0 0)
(2423.63 -0 0)
(-2264.38 0 0)
(-2862.09 0 0)
(-8064.24 0 0)
(-6237.56 0 0)
(189180 -0 0)
(105695 -0 0)
(186737 -0 0)
(349966 -0 0)
(269793 -0 0)
(233464 -0 0)
(217295 -0 0)
(186424 -0 0)
(15870.2 -0 0)
(33981.7 -0 0)
(127033 -0 0)
(45207.3 -0 0)
(264501 -0 0)
(169596 -0 0)
(-42470.2 0 0)
(331000 -0 0)
(286285 -0 0)
(298549 -0 0)
(482748 -0 0)
(560357 -0 0)
(498372 -0 0)
(546744 -0 0)
(541507 -0 0)
(540053 -0 0)
(736034 -0 0)
(671242 -0 0)
(568821 -0 0)
(463433 -0 0)
(295784 -0 0)
(-69917.1 0 0)
(351154 -0 0)
(102259 -0 0)
(197425 -0 0)
(169538 -0 0)
(237513 -0 0)
(340739 -0 0)
(89330.2 -0 0)
(110644 -0 0)
(122403 -0 0)
(292652 -0 0)
(237343 -0 0)
(-206859 0 0)
(-36322.2 0 0)
(33805.2 -0 0)
(62001 -0 0)
(52661.2 -0 0)
(94010.9 -0 0)
(125401 -0 0)
(118010 -0 0)
(114582 -0 0)
(82544.4 -0 0)
(47283.4 -0 0)
(28799.1 -0 0)
(21789.8 -0 0)
(11866.8 -0 0)
(9169.19 -0 0)
(-2329.27 0 0)
(-10109.2 0 0)
(-9616.58 0 0)
(-18777.6 0 0)
(-16163.8 0 0)
(-19424 0 0)
(-12948.7 0 0)
(-19920.2 0 0)
(-17106.8 0 0)
(-9877.89 0 0)
(-14258.4 0 0)
(-11088.8 0 0)
(-13542.2 0 0)
(-10842.3 0 0)
(-14806 0 0)
(-16269.3 0 0)
(-8504.64 0 0)
(-6925.99 0 0)
(4315.14 -0 0)
(9049.12 -0 0)
(19383.7 -0 0)
(7212.96 -0 0)
(2894.82 -0 0)
(-2898.49 0 0)
(-10028.7 0 0)
(-8855.71 0 0)
(-10396.3 0 0)
(248.864 -0 0)
(7339.96 -0 0)
(17466.6 -0 0)
(13079.9 -0 0)
(11838.1 -0 0)
(7710.44 -0 0)
(12615.9 -0 0)
(9177.62 -0 0)
(11739.7 -0 0)
(8607.82 -0 0)
(12023.1 -0 0)
(7210.43 -0 0)
(8557.84 -0 0)
(464.956 -0 0)
(-3730.13 0 0)
(-6155.68 0 0)
(-8105.87 0 0)
(187978 -0 0)
(97534.6 -0 0)
(189417 -0 0)
(391213 -0 0)
(354934 -0 0)
(304350 -0 0)
(279875 -0 0)
(272702 -0 0)
(122003 -0 0)
(123884 -0 0)
(275579 -0 0)
(222800 -0 0)
(394915 -0 0)
(308815 -0 0)
(-15395.2 0 0)
(-77685.9 0 0)
(66105.5 -0 0)
(104311 -0 0)
(434035 -0 0)
(517549 -0 0)
(473497 -0 0)
(571846 -0 0)
(601901 -0 0)
(580610 -0 0)
(709349 -0 0)
(642245 -0 0)
(568006 -0 0)
(421714 -0 0)
(318348 -0 0)
(211234 -0 0)
(425612 -0 0)
(320756 -0 0)
(301637 -0 0)
(151847 -0 0)
(223229 -0 0)
(336214 -0 0)
(62354.3 -0 0)
(219760 -0 0)
(144310 -0 0)
(374957 -0 0)
(325421 -0 0)
(-88222.3 0 0)
(99782.7 -0 0)
(48753 -0 0)
(-48744.8 0 0)
(-20408.8 0 0)
(98399.5 -0 0)
(127041 -0 0)
(125994 -0 0)
(104507 -0 0)
(65596.3 -0 0)
(34266.6 -0 0)
(23640.3 -0 0)
(20251.8 -0 0)
(15300.1 -0 0)
(8594.55 -0 0)
(402.762 -0 0)
(-11176.4 0 0)
(-14278.7 0 0)
(-15058.5 0 0)
(-21679.9 0 0)
(-16751.8 0 0)
(-13988 0 0)
(-18607.3 0 0)
(-12107.1 0 0)
(-14034.1 0 0)
(-11083.1 0 0)
(-12894 0 0)
(-10001.2 0 0)
(-12023.3 0 0)
(-10315.8 0 0)
(-15232.5 0 0)
(-10041.5 0 0)
(-3190.42 0 0)
(-1700.21 0 0)
(15723 -0 0)
(9764.09 -0 0)
(13403.8 -0 0)
(3167.62 -0 0)
(-2031.63 0 0)
(-4770.98 0 0)
(-8534.85 0 0)
(-4484.63 0 0)
(802.968 -0 0)
(11087.3 -0 0)
(13573.7 -0 0)
(13978.6 -0 0)
(7372.72 -0 0)
(13701.5 -0 0)
(7238.15 -0 0)
(13554.5 -0 0)
(9223.62 -0 0)
(11805.7 -0 0)
(8853.43 -0 0)
(10818.7 -0 0)
(7900.09 -0 0)
(-288 0 0)
(-3236.72 0 0)
(-5743.85 0 0)
(-9045.51 0 0)
(192839 -0 0)
(81718.5 -0 0)
(193391 -0 0)
(440314 -0 0)
(435198 -0 0)
(376807 -0 0)
(329142 -0 0)
(355778 -0 0)
(157424 -0 0)
(169545 -0 0)
(360155 -0 0)
(385342 -0 0)
(494142 -0 0)
(345495 -0 0)
(-972.98 0 0)
(-182488 0 0)
(-620142 0 0)
(-62204.1 0 0)
(387800 -0 0)
(328232 -0 0)
(377613 -0 0)
(576952 -0 0)
(617237 -0 0)
(597462 -0 0)
(698007 -0 0)
(599646 -0 0)
(528079 -0 0)
(381226 -0 0)
(218750 -0 0)
(367940 -0 0)
(471730 -0 0)
(365421 -0 0)
(302956 -0 0)
(128354 -0 0)
(185732 -0 0)
(316060 -0 0)
(79919.9 -0 0)
(297747 -0 0)
(254705 -0 0)
(442185 -0 0)
(261681 -0 0)
(-132500 0 0)
(162915 -0 0)
(55346.3 -0 0)
(-66437.6 0 0)
(-31396.8 0 0)
(88596.3 -0 0)
(132169 -0 0)
(113930 -0 0)
(90564.9 -0 0)
(46703.7 -0 0)
(21586.8 -0 0)
(17896.6 -0 0)
(20910.9 -0 0)
(13087.6 -0 0)
(11221.5 -0 0)
(1752.01 -0 0)
(-12367.1 0 0)
(-16754.6 0 0)
(-20760.4 0 0)
(-20337.7 0 0)
(-22437.3 0 0)
(-20329.1 0 0)
(-13640.1 0 0)
(-12787.5 0 0)
(-10791.9 0 0)
(-12627.3 0 0)
(-9666.47 0 0)
(-11318.9 0 0)
(-8658.78 0 0)
(-11612.7 0 0)
(-12460.5 0 0)
(-15099.4 0 0)
(-5048.49 0 0)
(2750.49 -0 0)
(8867.8 -0 0)
(17388.3 -0 0)
(9178.58 -0 0)
(9775.45 -0 0)
(-4392.59 0 0)
(-4202.16 0 0)
(-2255.31 0 0)
(-4491.84 0 0)
(6418.38 -0 0)
(8616.51 -0 0)
(14724.5 -0 0)
(8240.59 -0 0)
(4938.76 -0 0)
(14820.7 -0 0)
(8726.83 -0 0)
(10336.2 -0 0)
(12707.2 -0 0)
(9185.3 -0 0)
(12295.5 -0 0)
(6666.94 -0 0)
(4156.14 -0 0)
(-44.9408 0 0)
(-3355.27 0 0)
(-5458.92 0 0)
(-8145.13 0 0)
(191502 -0 0)
(64821.3 -0 0)
(185667 -0 0)
(460149 -0 0)
(524878 -0 0)
(444541 -0 0)
(366094 -0 0)
(412385 -0 0)
(198450 -0 0)
(179085 -0 0)
(438500 -0 0)
(509638 -0 0)
(527257 -0 0)
(398272 -0 0)
(-176057 0 0)
(-182552 0 0)
(-317987 0 0)
(-249218 0 0)
(123967 -0 0)
(-89408.2 0 0)
(-12753.1 0 0)
(442750 -0 0)
(509651 -0 0)
(563547 -0 0)
(610479 -0 0)
(519699 -0 0)
(416905 -0 0)
(331458 -0 0)
(165474 -0 0)
(424367 -0 0)
(442546 -0 0)
(312990 -0 0)
(267230 -0 0)
(190675 -0 0)
(166506 -0 0)
(262464 -0 0)
(106544 -0 0)
(349051 -0 0)
(346425 -0 0)
(458398 -0 0)
(104601 -0 0)
(-85352.8 0 0)
(162569 -0 0)
(-25138.4 0 0)
(-75077.4 0 0)
(40401.4 -0 0)
(128017 -0 0)
(157938 -0 0)
(100298 -0 0)
(50002.2 -0 0)
(20043.2 -0 0)
(4142.37 -0 0)
(12535.4 -0 0)
(13578.2 -0 0)
(13916.9 -0 0)
(11438.4 -0 0)
(1871.92 -0 0)
(-12282.8 0 0)
(-16489.8 0 0)
(-21260.8 0 0)
(-22839.8 0 0)
(-20360.5 0 0)
(-18090 0 0)
(-14288.8 0 0)
(-11215.2 0 0)
(-11265.8 0 0)
(-9714.95 0 0)
(-10644 0 0)
(-8236.87 0 0)
(-9564.49 0 0)
(-8469.15 0 0)
(-14283.2 0 0)
(-13582.3 0 0)
(-13629.9 0 0)
(-3704.94 0 0)
(13426 -0 0)
(6620.73 -0 0)
(15433.7 -0 0)
(8344.41 -0 0)
(380.329 -0 0)
(-6517.28 0 0)
(-938.095 0 0)
(3211.06 -0 0)
(4826.68 -0 0)
(10933.3 -0 0)
(9571.61 -0 0)
(4179.88 -0 0)
(8255.36 -0 0)
(9718.59 -0 0)
(16454.2 -0 0)
(13956.1 -0 0)
(9981.12 -0 0)
(11934.2 -0 0)
(9147.33 -0 0)
(9067.19 -0 0)
(1260.1 -0 0)
(-525.716 0 0)
(-2290.5 0 0)
(-3282.14 0 0)
(-9262.71 0 0)
(195638 -0 0)
(42427.9 -0 0)
(155693 -0 0)
(458265 -0 0)
(588103 -0 0)
(494858 -0 0)
(402810 -0 0)
(463268 -0 0)
(227993 -0 0)
(156733 -0 0)
(434080 -0 0)
(591235 -0 0)
(463845 -0 0)
(273672 -0 0)
(-135558 0 0)
(-772788 0 0)
(-87258 0 0)
(-502973 0 0)
(-663259 0 0)
(-680748 0 0)
(-598471 0 0)
(-149834 0 0)
(131174 -0 0)
(408556 -0 0)
(442352 -0 0)
(374116 -0 0)
(209762 -0 0)
(185827 -0 0)
(101125 -0 0)
(415952 -0 0)
(329947 -0 0)
(178000 -0 0)
(138392 -0 0)
(95957.6 -0 0)
(94582.5 -0 0)
(152416 -0 0)
(72455.3 -0 0)
(393170 -0 0)
(398249 -0 0)
(350427 -0 0)
(-56356.1 0 0)
(-25627.3 0 0)
(163346 -0 0)
(-25635.9 0 0)
(-27966.6 0 0)
(73707.7 -0 0)
(138950 -0 0)
(128736 -0 0)
(42856.7 -0 0)
(-5813.21 0 0)
(-13309.4 0 0)
(-10296.2 0 0)
(3831.06 -0 0)
(12371.7 -0 0)
(12969.1 -0 0)
(9183.77 -0 0)
(1253.81 -0 0)
(-12679.7 0 0)
(-17563.5 0 0)
(-19610.7 0 0)
(-22049.6 0 0)
(-24068.9 0 0)
(-18969.8 0 0)
(-13986.2 0 0)
(-11468.9 0 0)
(-9121.81 0 0)
(-9849.01 0 0)
(-7930.71 0 0)
(-8782.12 0 0)
(-6463.26 0 0)
(-8862.14 0 0)
(-11211.2 0 0)
(-16208.1 0 0)
(-11591.1 0 0)
(-7240.28 0 0)
(7841.11 -0 0)
(14591.2 -0 0)
(11247.6 -0 0)
(13726.4 -0 0)
(-0.494279 0 0)
(-2026.86 0 0)
(-4009.09 0 0)
(488.042 -0 0)
(10273.1 -0 0)
(6819.13 -0 0)
(9796.46 -0 0)
(4388.84 -0 0)
(5149.28 -0 0)
(12649.6 -0 0)
(14022.6 -0 0)
(10324.1 -0 0)
(12914 -0 0)
(9281.38 -0 0)
(12502.2 -0 0)
(6418.24 -0 0)
(2132.15 -0 0)
(17.2202 -0 0)
(-4268.34 0 0)
(-4725.51 0 0)
(-5204.18 0 0)
(195783 -0 0)
(23870.5 -0 0)
(108419 -0 0)