/*--------------------------------*- C++ -*----------------------------------*\
| =========                 |                                                 |
| \\      /  F ield         | foam-extend: Open Source CFD                    |
|  \\    /   O peration     | Version:     5.0                                |
|   \\  /    A nd           | Web:         http://www.foam-extend.org         |
|    \\/     M anipulation  |                                                 |
\*---------------------------------------------------------------------------*/
FoamFile
{
    version     2.0;
    format      ascii;
    class       volVectorField;
    location    "0.1";
    object      currentDensity;
}
// * * * * * * * * * * * * * * * * * * * * * * * * * * * * * * * * * * * * * //

dimensions      [0 -2 0 0 0 1 0];

internalField   nonuniform List<vector> 
4000
(
(0 0 7350.97)
(0 0 14173)
(0 0 18922.5)
(0 0 21116.2)
(0 0 21802.5)
(0 0 23954.4)
(0 0 25073)
(0 0 12599.9)
(0 0 3223.59)
(0 0 7275.94)
(0 0 -716.667)
(0 0 -9663.58)
(0 0 -16225.1)
(0 0 -21494)
(0 0 -27309.4)
(0 0 -24701.9)
(0 0 -19511.8)
(0 0 -11617.2)
(0 0 881.34)
(0 0 12710)
(0 0 28486.3)
(0 0 30975.6)
(0 0 24168.7)
(0 0 27602.9)
(0 0 36145.8)
(0 0 37865)
(0 0 6619.61)
(0 0 31888.4)
(0 0 65788.4)
(0 0 56536.4)
(0 0 49597.5)
(0 0 54183.8)
(0 0 49961.9)
(0 0 45353.9)
(0 0 54715)
(0 0 53683.2)
(0 0 46234.2)
(0 0 37093)
(0 0 32775.7)
(0 0 31369.8)
(0 0 28835.1)
(0 0 29397.4)
(0 0 28254.5)
(0 0 26861.7)
(0 0 23327)
(0 0 16928.1)
(0 0 12769.1)
(0 0 8743.09)
(0 0 6552.68)
(0 0 4554.43)
(0 0 3774.29)
(0 0 2431.77)
(0 0 1850.25)
(0 0 1284.71)
(0 0 1249)
(0 0 487.882)
(0 0 606.604)
(0 0 206.488)
(0 0 366.742)
(0 0 221.77)
(0 0 36.2698)
(0 0 199.405)
(0 0 -61.1125)
(0 0 -38.8774)
(0 0 -29.9732)
(0 0 202.414)
(0 0 254.608)
(0 0 288.168)
(0 0 279.146)
(0 0 205.875)
(0 0 163.147)
(0 0 135.637)
(0 0 42.2264)
(0 0 -58.7876)
(0 0 -121.106)
(0 0 -82.8568)
(0 0 -71.1497)
(0 0 5.95516)
(0 0 69.2015)
(0 0 121.033)
(0 0 203.971)
(0 0 100.341)
(0 0 140.144)
(0 0 33.0627)
(0 0 -102.53)
(0 0 -238.377)
(0 0 -241.969)
(0 0 -402.738)
(0 0 -359.535)
(0 0 -342.662)
(0 0 -280.442)
(0 0 -186.694)
(0 0 -179.155)
(0 0 -106.297)
(0 0 -111.163)
(0 0 -104.538)
(0 0 -68.0995)
(0 0 1.13611)
(0 0 103.257)
(0 0 201.815)
(0 0 5554.32)
(0 0 19440.7)
(0 0 27440)
(0 0 34789.6)
(0 0 32370)
(0 0 23515.7)
(0 0 11815.4)
(0 0 2130.38)
(0 0 3012.29)
(0 0 -7420.6)
(0 0 -25490.4)
(0 0 -43705.3)
(0 0 -44265.8)
(0 0 -49790.6)
(0 0 -53000.2)
(0 0 -47171.3)
(0 0 -47158.7)
(0 0 -37182)
(0 0 -20779.6)
(0 0 -12102)
(0 0 14739.4)
(0 0 38258)
(0 0 34048.8)
(0 0 41779.5)
(0 0 42041.6)
(0 0 27597.8)
(0 0 -134.64)
(0 0 3753.33)
(0 0 7378.39)
(0 0 14830)
(0 0 6655.76)
(0 0 14291.8)
(0 0 27760.2)
(0 0 42875.4)
(0 0 52401.1)
(0 0 47875.6)
(0 0 38906.8)
(0 0 28251.3)
(0 0 21221.2)
(0 0 17375.4)
(0 0 16748.3)
(0 0 19207.7)
(0 0 21480.8)
(0 0 28006.4)
(0 0 27651.7)
(0 0 23137.8)
(0 0 16908.5)
(0 0 11462.9)
(0 0 7184.46)
(0 0 5549.64)
(0 0 3938.43)
(0 0 3482.1)
(0 0 2191.17)
(0 0 1999)
(0 0 1310.72)
(0 0 1502.95)
(0 0 805.187)
(0 0 1127.22)
(0 0 810.44)
(0 0 138.967)
(0 0 634.299)
(0 0 131.885)
(0 0 464.058)
(0 0 -132.414)
(0 0 50.8158)
(0 0 590.418)
(0 0 354.579)
(0 0 510.681)
(0 0 592.62)
(0 0 458.925)
(0 0 354.14)
(0 0 287.928)
(0 0 79.4421)
(0 0 -79.8249)
(0 0 -237.528)
(0 0 -146.649)
(0 0 -175.4)
(0 0 259.057)
(0 0 234.407)
(0 0 243.941)
(0 0 567.59)
(0 0 264.341)
(0 0 543.485)
(0 0 -5.08168)
(0 0 -97.2345)
(0 0 -72.0338)
(0 0 -574.937)
(0 0 -575.039)
(0 0 -852.378)
(0 0 -669.938)
(0 0 -641.085)
(0 0 -375.939)
(0 0 -324.873)
(0 0 -252.894)
(0 0 -233.945)
(0 0 -196.481)
(0 0 -110.518)
(0 0 36.1445)
(0 0 205.863)
(0 0 308.702)
(0 0 261.182)
(0 0 17599.7)
(0 0 19349.9)
(0 0 28456.3)
(0 0 32620.1)
(0 0 25747.5)
(0 0 8060.91)
(0 0 1950.39)
(0 0 22511.4)
(0 0 -10263)
(0 0 -23902.4)
(0 0 -33123.3)
(0 0 -35075)
(0 0 -39427.1)
(0 0 -38815.8)
(0 0 -21299.4)
(0 0 -18986.6)
(0 0 -28339.7)
(0 0 -25709.2)
(0 0 -25146.6)
(0 0 -7314.74)
(0 0 -3145.77)
(0 0 -921.203)
(0 0 28115.5)
(0 0 15731.4)
(0 0 41232.6)
(0 0 -7551.05)
(0 0 -306.782)
(0 0 5610.5)
(0 0 7815.01)
(0 0 91.1646)
(0 0 7732.38)
(0 0 18333.2)
(0 0 30075.8)
(0 0 25966.9)
(0 0 14298.4)
(0 0 4645.01)
(0 0 840.252)
(0 0 -3141.47)
(0 0 -4240.03)
(0 0 -1191.69)
(0 0 1641.18)
(0 0 8222.25)
(0 0 15679.9)
(0 0 20443.9)
(0 0 19649)
(0 0 17252.2)
(0 0 11831.4)
(0 0 8034.02)
(0 0 4782.12)
(0 0 3996.44)
(0 0 2721.63)
(0 0 2507.39)
(0 0 1437.04)
(0 0 1660.75)
(0 0 1465.66)
(0 0 620.673)
(0 0 997.85)
(0 0 474.901)
(0 0 886.459)
(0 0 279.071)
(0 0 342.691)
(0 0 1032.63)
(0 0 470.271)
(0 0 937.217)
(0 0 423.812)
(0 0 590.371)
(0 0 1108.83)
(0 0 520.402)
(0 0 785.481)
(0 0 494.358)
(0 0 500.826)
(0 0 151.357)
(0 0 22.8551)
(0 0 -102.85)
(0 0 -116.27)
(0 0 157.75)
(0 0 280.72)
(0 0 738.35)
(0 0 600.182)
(0 0 493.561)
(0 0 653.024)
(0 0 712.641)
(0 0 185.951)
(0 0 303.354)
(0 0 -243.011)
(0 0 -292.698)
(0 0 -694.639)
(0 0 -746.967)
(0 0 -723.805)
(0 0 -590.823)
(0 0 -434.906)
(0 0 -339.862)
(0 0 -292.85)
(0 0 -259.8)
(0 0 -183.427)
(0 0 -88.7923)
(0 0 79.8963)
(0 0 205.854)
(0 0 322.657)
(0 0 -2255.72)
(0 0 14914.6)
(0 0 15448.7)
(0 0 21909.6)
(0 0 29781.9)
(0 0 30004.9)
(0 0 11657.9)
(0 0 234.919)
(0 0 22583.7)
(0 0 2195.31)
(0 0 -19979)
(0 0 6373.65)
(0 0 5288.99)
(0 0 -18468.6)
(0 0 -17810.7)
(0 0 6069.5)
(0 0 10556)
(0 0 -1227.07)
(0 0 -2226.74)
(0 0 -16579.5)
(0 0 -22274.8)
(0 0 -21270.2)
(0 0 -16103.7)
(0 0 2723)
(0 0 20179)
(0 0 38011.9)
(0 0 -9477.58)
(0 0 -9853.97)
(0 0 11997.7)
(0 0 20996.1)
(0 0 8050.15)
(0 0 12130)
(0 0 23144.2)
(0 0 6628.9)
(0 0 12691)
(0 0 821.838)
(0 0 -2348.74)
(0 0 -7638.57)
(0 0 -9037.79)
(0 0 -8442.02)
(0 0 -8944.51)
(0 0 -6996.47)
(0 0 -4703.66)
(0 0 -789.997)
(0 0 2572.99)
(0 0 9491.58)
(0 0 14294.7)
(0 0 12137.1)
(0 0 8503.97)
(0 0 5595.85)
(0 0 3295)
(0 0 2787.54)
(0 0 1606.33)
(0 0 1497.58)
(0 0 633.704)
(0 0 904.966)
(0 0 458.696)
(0 0 864.187)
(0 0 516.538)
(0 0 1035.44)
(0 0 653.623)
(0 0 1071.9)
(0 0 777.008)
(0 0 1260.88)
(0 0 1328.99)
(0 0 690.523)
(0 0 1092.8)
(0 0 1030.33)
(0 0 495.621)
(0 0 763.603)
(0 0 813.347)
(0 0 516.106)
(0 0 345.572)
(0 0 41.2861)
(0 0 53.1114)
(0 0 58.8943)
(0 0 193.237)
(0 0 593.723)
(0 0 667.189)
(0 0 1011.11)
(0 0 682.259)
(0 0 866.805)
(0 0 483.428)
(0 0 577.621)
(0 0 98.5962)
(0 0 -71.7927)
(0 0 -436.903)
(0 0 -580.584)
(0 0 -727.637)
(0 0 -692.881)
(0 0 -542.494)
(0 0 -378.463)
(0 0 -366.262)
(0 0 -297.148)
(0 0 -228.863)
(0 0 -118.916)
(0 0 -62.6886)
(0 0 56.1002)
(0 0 165.24)
(0 0 196.871)
(0 0 -1745.79)
(0 0 11714)
(0 0 11312.8)
(0 0 15943.5)
(0 0 21843.7)
(0 0 26927.5)
(0 0 16866.5)
(0 0 9010.89)
(0 0 28097.4)
(0 0 1630.84)
(0 0 -10983.2)
(0 0 20528.2)
(0 0 41196.5)
(0 0 42803.4)
(0 0 10789)
(0 0 4712.04)
(0 0 948.082)
(0 0 19586.2)
(0 0 -2267.71)
(0 0 -12485.1)
(0 0 -21480.8)
(0 0 -22232.9)
(0 0 -21098.5)
(0 0 -10888)
(0 0 21421.7)
(0 0 26518.7)
(0 0 11584.8)
(0 0 11694.2)
(0 0 16294.2)
(0 0 19099.7)
(0 0 18059)
(0 0 16628.4)
(0 0 39449)
(0 0 11895.1)
(0 0 -2387.13)
(0 0 -1313.82)
(0 0 569.837)
(0 0 -1920.99)
(0 0 -5754.76)
(0 0 -8163.74)
(0 0 -9094.05)
(0 0 -10314.8)
(0 0 -8256.58)
(0 0 -7061.27)
(0 0 -5603.67)
(0 0 -1827.17)
(0 0 3591.59)
(0 0 8582.15)
(0 0 8093.37)
(0 0 5509.24)
(0 0 3601.13)
(0 0 1912.5)
(0 0 1803.06)
(0 0 674.158)
(0 0 907.104)
(0 0 159.43)
(0 0 626.445)
(0 0 277.717)
(0 0 749.024)
(0 0 501.873)
(0 0 1021.89)
(0 0 640.431)
(0 0 1082.35)
(0 0 814.915)
(0 0 1287.68)
(0 0 1040.49)
(0 0 607.445)
(0 0 526.265)
(0 0 835.195)
(0 0 1226.73)
(0 0 642.376)
(0 0 832.162)
(0 0 268.312)
(0 0 234.498)
(0 0 42.6064)
(0 0 178.592)
(0 0 331.453)
(0 0 547.348)
(0 0 930.039)
(0 0 875.955)
(0 0 1051.91)
(0 0 732.943)
(0 0 761.809)
(0 0 366.231)
(0 0 384.377)
(0 0 -161.007)
(0 0 -351.706)
(0 0 -558.53)
(0 0 -832.204)
(0 0 -610.634)
(0 0 -733.844)
(0 0 -140.811)
(0 0 -327.479)
(0 0 -317.42)
(0 0 -214.233)
(0 0 -41.4611)
(0 0 -35.8585)
(0 0 87.3681)
(0 0 287.295)
(0 0 204.594)
(0 0 -636.546)
(0 0 9203.6)
(0 0 7593.43)
(0 0 10935.3)
(0 0 17923.8)
(0 0 23411.5)
(0 0 18019.3)
(0 0 8983.14)
(0 0 20797.7)
(0 0 5546.93)
(0 0 -1198.63)
(0 0 15057.7)
(0 0 22164.3)
(0 0 33409)
(0 0 18100.1)
(0 0 7747.21)
(0 0 -12723.6)
(0 0 -17433.3)
(0 0 -16421.3)
(0 0 -9820.33)
(0 0 -20891.7)
(0 0 -21968.2)
(0 0 -16862.8)
(0 0 -2944.23)
(0 0 -1805.1)
(0 0 6318.09)
(0 0 33933.8)
(0 0 16189.6)
(0 0 15004.2)
(0 0 43330.3)
(0 0 22028.8)
(0 0 12646.1)
(0 0 16344.6)
(0 0 3929.92)
(0 0 -4211.33)
(0 0 -1212.69)
(0 0 4802.28)
(0 0 10197.8)
(0 0 671.524)
(0 0 -2349.84)
(0 0 -7300.67)
(0 0 -9965.01)
(0 0 -9931.71)
(0 0 -9112.45)
(0 0 -9022.43)
(0 0 -8225.52)
(0 0 -4022)
(0 0 1648.53)
(0 0 5443.56)
(0 0 5267.44)
(0 0 3417.86)
(0 0 1741.04)
(0 0 1578.24)
(0 0 484.918)
(0 0 643.796)
(0 0 -54.5601)
(0 0 54.1561)
(0 0 491.723)
(0 0 66.4563)
(0 0 693.137)
(0 0 378.169)
(0 0 864.128)
(0 0 570.752)
(0 0 1249.32)
(0 0 1090.86)
(0 0 595.387)
(0 0 1109.79)
(0 0 750.986)
(0 0 1279.11)
(0 0 1176.7)
(0 0 739.497)
(0 0 922.214)
(0 0 499.121)
(0 0 127.194)
(0 0 216.39)
(0 0 158.208)
(0 0 390.103)
(0 0 674.321)
(0 0 820.111)
(0 0 1107.65)
(0 0 911.713)
(0 0 972.533)
(0 0 581.441)
(0 0 611.715)
(0 0 132.304)
(0 0 -68.2886)
(0 0 -336.963)
(0 0 -712.851)
(0 0 -679.566)
(0 0 -960.661)
(0 0 -723.461)
(0 0 -118.939)
(0 0 -133.641)
(0 0 -203.201)
(0 0 -32.5095)
(0 0 86.8254)
(0 0 -20.1293)
(0 0 219.681)
(0 0 322.88)
(0 0 174.275)
(0 0 966.493)
(0 0 6620.2)
(0 0 4828.51)
(0 0 7617.22)
(0 0 13008.5)
(0 0 21319)
(0 0 19940.5)
(0 0 12186.3)
(0 0 13295)
(0 0 9145.4)
(0 0 4947.69)
(0 0 8519.39)
(0 0 11161.5)
(0 0 13385.8)
(0 0 12514)
(0 0 11310.2)
(0 0 -4976.91)
(0 0 -20017)
(0 0 -18169.2)
(0 0 -7870.16)
(0 0 -12341.6)
(0 0 -15430.2)
(0 0 -15739.5)
(0 0 11763.2)
(0 0 3555.42)
(0 0 -2334.94)
(0 0 28648.1)
(0 0 5376.77)
(0 0 -10308.1)
(0 0 2208.86)
(0 0 31171)
(0 0 11295.2)
(0 0 -2640.28)
(0 0 -4666.79)
(0 0 -7214.91)
(0 0 -2633.99)
(0 0 11440.3)
(0 0 12363.4)
(0 0 9810.51)
(0 0 4361.05)
(0 0 -1519.85)
(0 0 -6740.56)
(0 0 -8895.12)
(0 0 -9048.45)
(0 0 -10408)
(0 0 -10337.3)
(0 0 -8825.18)
(0 0 -4992.23)
(0 0 211.493)
(0 0 3010.82)
(0 0 2606.63)
(0 0 1774.19)
(0 0 1089.61)
(0 0 1188.26)
(0 0 353.171)
(0 0 635.358)
(0 0 47.8922)
(0 0 347.388)
(0 0 -80.4653)
(0 0 82.5576)
(0 0 439.44)
(0 0 82.6754)
(0 0 417.534)
(0 0 1033.17)
(0 0 619.304)
(0 0 1009.72)
(0 0 777.254)
(0 0 1039.43)
(0 0 774.625)
(0 0 792.853)
(0 0 1045.72)
(0 0 800.713)
(0 0 309.457)
(0 0 325.505)
(0 0 99.6726)
(0 0 252.781)
(0 0 355.692)
(0 0 674.838)
(0 0 953.417)
(0 0 945.884)
(0 0 1114.57)
(0 0 822.447)
(0 0 767.655)
(0 0 481.437)
(0 0 216.173)
(0 0 -69.396)
(0 0 -507.712)
(0 0 -637.084)
(0 0 -926.136)
(0 0 -916.58)
(0 0 -330.022)
(0 0 -475.716)
(0 0 -335.486)
(0 0 35.8964)
(0 0 -93.5945)
(0 0 146.767)
(0 0 48.3423)
(0 0 77.8755)
(0 0 264.15)
(0 0 80.9813)
(0 0 3062.9)
(0 0 3856.77)
(0 0 2127.34)
(0 0 3896.2)
(0 0 10174.3)
(0 0 18894.8)
(0 0 21943.2)
(0 0 16122.4)
(0 0 11739.3)
(0 0 7760.44)
(0 0 6919.1)
(0 0 7598.58)
(0 0 10125.9)
(0 0 7796.6)
(0 0 7231.74)
(0 0 7319.2)
(0 0 4893.24)
(0 0 -11750.7)
(0 0 -8229.73)
(0 0 -1027.46)
(0 0 13069.1)
(0 0 1108.24)
(0 0 -4333.83)
(0 0 17879.8)
(0 0 7762.87)
(0 0 417.507)
(0 0 21773.2)
(0 0 22232.2)
(0 0 -5540.83)
(0 0 -13824.8)
(0 0 -3818.22)
(0 0 468.533)
(0 0 -7306.91)
(0 0 -7094.57)
(0 0 -6802.27)
(0 0 -2093.39)
(0 0 8690.07)
(0 0 3943.59)
(0 0 9932)
(0 0 5813)
(0 0 7.63608)
(0 0 1075.4)
(0 0 -2755.76)
(0 0 -8798.36)
(0 0 -9637.11)
(0 0 -10908.9)
(0 0 -9924.83)
(0 0 -7311.94)
(0 0 -4950.98)
(0 0 -948.845)
(0 0 960.849)
(0 0 1419.98)
(0 0 1271.21)
(0 0 857.016)
(0 0 1086.82)
(0 0 338.18)
(0 0 569.212)
(0 0 177.12)
(0 0 615.219)
(0 0 477.937)
(0 0 -84.888)
(0 0 210.348)
(0 0 845.762)
(0 0 478.769)
(0 0 874.415)
(0 0 740.167)
(0 0 1014.13)
(0 0 737.99)
(0 0 1031.11)
(0 0 1029.91)
(0 0 881.175)
(0 0 401.923)
(0 0 557.753)
(0 0 144.372)
(0 0 246.682)
(0 0 112.83)
(0 0 366.151)
(0 0 658.193)
(0 0 904.807)
(0 0 1074.71)
(0 0 955.023)
(0 0 984.818)
(0 0 573.619)
(0 0 518.986)
(0 0 118.972)
(0 0 -119.514)
(0 0 -426.034)
(0 0 -898.029)
(0 0 -522.837)
(0 0 -407.243)
(0 0 -682.283)
(0 0 -151.018)
(0 0 -151.683)
(0 0 -106.865)
(0 0 -227.614)
(0 0 21.8185)
(0 0 112.223)
(0 0 -76.879)
(0 0 139.63)
(0 0 -25.4137)
(0 0 4604.16)
(0 0 1155.12)
(0 0 -855.566)
(0 0 1442.94)
(0 0 6855.19)
(0 0 16934.4)
(0 0 23626.4)
(0 0 21226)
(0 0 15104)
(0 0 11095.2)
(0 0 11373.3)
(0 0 15029.2)
(0 0 15917.2)
(0 0 12999)
(0 0 10326.4)
(0 0 10753.4)
(0 0 12644.7)
(0 0 912.89)
(0 0 3321.49)
(0 0 5308.04)
(0 0 5190.91)
(0 0 5751.17)
(0 0 -9279.94)
(0 0 -15495.2)
(0 0 400.022)
(0 0 4220.13)
(0 0 3880.6)
(0 0 5695.11)
(0 0 -9109.93)
(0 0 -18092.1)
(0 0 -11993.4)
(0 0 -8521.48)
(0 0 -9821.14)
(0 0 -7031.87)
(0 0 -5068.5)
(0 0 898.362)
(0 0 -1200.75)
(0 0 -1716.38)
(0 0 2304.73)
(0 0 928.094)
(0 0 -1583.06)
(0 0 -767.114)
(0 0 -5032.96)
(0 0 -6121.53)
(0 0 -9127.12)
(0 0 -10231.7)
(0 0 -9338.51)
(0 0 -8616.08)
(0 0 -6459.86)
(0 0 -4529.54)
(0 0 -952.58)
(0 0 133.421)
(0 0 1039.07)
(0 0 1236.11)
(0 0 655.076)
(0 0 896.147)
(0 0 236.379)
(0 0 512.317)
(0 0 149.402)
(0 0 543.836)
(0 0 197.334)
(0 0 579.548)
(0 0 285.024)
(0 0 656.797)
(0 0 524.08)
(0 0 1091.38)
(0 0 721.175)
(0 0 885.16)
(0 0 553.791)
(0 0 758.687)
(0 0 545.967)
(0 0 613.323)
(0 0 337.004)
(0 0 344.535)
(0 0 61.268)
(0 0 156.714)
(0 0 198.534)
(0 0 615.044)
(0 0 941.689)
(0 0 992.65)
(0 0 1093.03)
(0 0 821.495)
(0 0 675.023)
(0 0 388.902)
(0 0 153.112)
(0 0 -72.594)
(0 0 -703.422)
(0 0 -645.336)
(0 0 -769.969)
(0 0 -258.494)
(0 0 -662.66)
(0 0 -452.58)
(0 0 -445.138)
(0 0 -44.6442)
(0 0 -245.671)
(0 0 99.9747)
(0 0 -92.7136)
(0 0 147.067)
(0 0 130.333)
(0 0 -12.1613)
(0 0 1697.02)
(0 0 -1777.07)
(0 0 -2876.11)
(0 0 -1520.67)
(0 0 5118.89)
(0 0 13484.1)
(0 0 24438.9)
(0 0 25248.1)
(0 0 19734.1)
(0 0 14925.4)
(0 0 17297.9)
(0 0 20286)
(0 0 19682)
(0 0 15064.3)
(0 0 15080)
(0 0 13244.3)
(0 0 17104.8)
(0 0 9879.21)
(0 0 13042)
(0 0 16476.7)
(0 0 6594.13)
(0 0 -16435.3)
(0 0 -32537.7)
(0 0 -24866)
(0 0 -17141.4)
(0 0 -7080.33)
(0 0 -3442.12)
(0 0 -3542.58)
(0 0 -12665.7)
(0 0 -18706.3)
(0 0 -16336.4)
(0 0 -10043.4)
(0 0 -12777.5)
(0 0 -5609.97)
(0 0 -7641.45)
(0 0 3142.53)
(0 0 -5109.58)
(0 0 -2838.2)
(0 0 -34.8349)
(0 0 -3973.86)
(0 0 -5894.71)
(0 0 -564.02)
(0 0 -2286.12)
(0 0 -5497.38)
(0 0 -8085.54)
(0 0 -8549.24)
(0 0 -10008.5)
(0 0 -8077.58)
(0 0 -7524.2)
(0 0 -5486.58)
(0 0 -3543.86)
(0 0 -1050.84)
(0 0 251.463)
(0 0 844.441)
(0 0 1085.28)
(0 0 642.243)
(0 0 692.94)
(0 0 215.049)
(0 0 487.54)
(0 0 237.171)
(0 0 565.292)
(0 0 275.479)
(0 0 487.13)
(0 0 219.936)
(0 0 544.981)
(0 0 1091.21)
(0 0 915.565)
(0 0 589.651)
(0 0 679.988)
(0 0 348.415)
(0 0 743.624)
(0 0 316.619)
(0 0 555.411)
(0 0 136.309)
(0 0 188.347)
(0 0 -73.5574)
(0 0 142.34)
(0 0 440.866)
(0 0 901.326)
(0 0 959.049)
(0 0 1050.39)
(0 0 907.804)
(0 0 514.427)
(0 0 354.057)
(0 0 232.959)
(0 0 -315.529)
(0 0 -567.102)
(0 0 -870.652)
(0 0 -432.174)
(0 0 -542.351)
(0 0 -102.041)
(0 0 -59.2622)
(0 0 -238.528)
(0 0 -332.733)
(0 0 -12.6091)
(0 0 -136.379)
(0 0 114.703)
(0 0 -18.3428)
(0 0 237.77)
(0 0 -15.0236)
(0 0 -3361.97)
(0 0 -3929.81)
(0 0 -4735.99)
(0 0 -3734.57)
(0 0 2249.53)
(0 0 10153.1)
(0 0 19325.3)
(0 0 26323)
(0 0 22055.6)
(0 0 17503.8)
(0 0 19317.9)
(0 0 23396.5)
(0 0 20732.6)
(0 0 14910.2)
(0 0 16198.6)
(0 0 8743.71)
(0 0 10064.9)
(0 0 9744.37)
(0 0 8501.41)
(0 0 4083.58)
(0 0 14754.5)
(0 0 -23916.7)
(0 0 -14074)
(0 0 -21896.5)
(0 0 -28019.2)
(0 0 -24721.9)
(0 0 -12030.9)
(0 0 -7836.57)
(0 0 -17592.4)
(0 0 -18253.9)
(0 0 -17351.2)
(0 0 -8977.19)
(0 0 -11867.3)
(0 0 -4784.25)
(0 0 -5951.14)
(0 0 414.116)
(0 0 -5501.83)
(0 0 -332.049)
(0 0 119.515)
(0 0 -2748.04)
(0 0 -7537.07)
(0 0 -5779.82)
(0 0 -4780.72)
(0 0 -3393.36)
(0 0 -5889.62)
(0 0 -6625.36)
(0 0 -7332.94)
(0 0 -7309.96)
(0 0 -7220.64)
(0 0 -6419.1)
(0 0 -4337.39)
(0 0 -2222.98)
(0 0 -941.121)
(0 0 425.6)
(0 0 803.401)
(0 0 879.896)
(0 0 472.67)
(0 0 656.869)
(0 0 162.442)
(0 0 715.553)
(0 0 278.104)
(0 0 760.635)
(0 0 194.72)
(0 0 364.932)
(0 0 964.716)
(0 0 596.892)
(0 0 515.819)
(0 0 810.073)
(0 0 467.173)
(0 0 341.91)
(0 0 691.395)
(0 0 357.592)
(0 0 318.217)
(0 0 337.911)
(0 0 -37.5071)
(0 0 -77.5777)
(0 0 -157.924)
(0 0 322.064)
(0 0 789.949)
(0 0 883.669)
(0 0 953.207)
(0 0 736.643)
(0 0 583.99)
(0 0 379.484)
(0 0 104.996)
(0 0 -301.07)
(0 0 -850.553)
(0 0 -587.311)
(0 0 -652.941)
(0 0 -224.292)
(0 0 -472.464)
(0 0 -182.499)
(0 0 -454.873)
(0 0 -151.19)
(0 0 -247.317)
(0 0 47.529)
(0 0 -79.3211)
(0 0 260.923)
(0 0 355.517)
(0 0 49.0984)
(0 0 -6744.85)
(0 0 -5322.7)
(0 0 -5895.18)
(0 0 -6674.74)
(0 0 266.773)
(0 0 5531.61)
(0 0 12188.4)
(0 0 20408.3)
(0 0 23978.2)
(0 0 16356.1)
(0 0 19166.6)
(0 0 21403.2)
(0 0 20611.9)
(0 0 13547.6)
(0 0 11345.7)
(0 0 1432.17)
(0 0 -574.294)
(0 0 -1093.06)
(0 0 9847.23)
(0 0 -9834.36)
(0 0 -11883.5)
(0 0 -13819.4)
(0 0 5682.76)
(0 0 -31375.5)
(0 0 -24922.8)
(0 0 -28969.9)
(0 0 -17748.9)
(0 0 -12576.7)
(0 0 -20549.6)
(0 0 -16188.5)
(0 0 -13227.2)
(0 0 -9681.62)
(0 0 -10236.4)
(0 0 -4398.2)
(0 0 -2919.06)
(0 0 -7207.21)
(0 0 -5084.1)
(0 0 -484.768)
(0 0 744.488)
(0 0 -2840.94)
(0 0 -7567.25)
(0 0 -5524.19)
(0 0 -7550.32)
(0 0 -7188.93)
(0 0 -6613.21)
(0 0 -5263.69)
(0 0 -4731.42)
(0 0 -7086.81)
(0 0 -7359.75)
(0 0 -6495.61)
(0 0 -4749.19)
(0 0 -2947.3)
(0 0 -1244.68)
(0 0 -90.1218)
(0 0 114.694)
(0 0 669.958)
(0 0 888.942)
(0 0 691.605)
(0 0 169.742)
(0 0 713.046)
(0 0 431.975)
(0 0 850.551)
(0 0 494.408)
(0 0 832.413)
(0 0 653.187)
(0 0 908.573)
(0 0 802.877)
(0 0 591.907)
(0 0 777.371)
(0 0 625.45)
(0 0 491.041)
(0 0 661.034)
(0 0 519.425)
(0 0 127.452)
(0 0 82.1005)
(0 0 -405.753)
(0 0 -207.452)
(0 0 -32.967)
(0 0 724.444)
(0 0 778.302)
(0 0 818.816)
(0 0 710.566)
(0 0 529.696)
(0 0 415.684)
(0 0 112.245)
(0 0 -660.332)
(0 0 -1049.51)
(0 0 -780.058)
(0 0 -374.826)
(0 0 -619.375)
(0 0 -274.383)
(0 0 -458.939)
(0 0 -275.102)
(0 0 -408.385)
(0 0 -99.3564)
(0 0 -176.497)
(0 0 142.084)
(0 0 80.4019)
(0 0 321.704)
(0 0 44.7081)
(0 0 -8486.97)
(0 0 -5997.2)
(0 0 -6957.04)
(0 0 -9049.01)
(0 0 -3086.28)
(0 0 1209.95)
(0 0 5044.65)
(0 0 12586.8)
(0 0 20101.7)
(0 0 13795.2)
(0 0 15420.5)
(0 0 17009.7)
(0 0 16515.9)
(0 0 18203.3)
(0 0 5487.43)
(0 0 -11740.6)
(0 0 -8520.96)
(0 0 -7426.54)
(0 0 -3509.83)
(0 0 -22095.8)
(0 0 -21143.2)
(0 0 -624.516)
(0 0 -9333.7)
(0 0 -26726.3)
(0 0 -30714.4)
(0 0 -29904.4)
(0 0 -24026.7)
(0 0 -19103.8)
(0 0 -20186.7)
(0 0 -8787.77)
(0 0 -3507.6)
(0 0 -11925.7)
(0 0 -11007.1)
(0 0 -7515.3)
(0 0 -5609.81)
(0 0 -12479.6)
(0 0 -6500.96)
(0 0 -1290.25)
(0 0 1310.86)
(0 0 -6009.82)
(0 0 -4769.78)
(0 0 -3609.82)
(0 0 -6029.69)
(0 0 -7997.09)
(0 0 -9890.92)
(0 0 -6625.15)
(0 0 -3915.34)
(0 0 -6609.33)
(0 0 -7402.49)
(0 0 -6600.06)
(0 0 -4766.82)
(0 0 -2947.01)
(0 0 -1582.63)
(0 0 -688.67)
(0 0 133.649)
(0 0 126.275)
(0 0 438.958)
(0 0 247.494)
(0 0 619.205)
(0 0 428.404)
(0 0 821.714)
(0 0 575.935)
(0 0 833.227)
(0 0 647.676)
(0 0 844.252)
(0 0 674.766)
(0 0 613.398)
(0 0 747.925)
(0 0 515.419)
(0 0 453.081)
(0 0 674.165)
(0 0 413.34)
(0 0 250.317)
(0 0 295.786)
(0 0 -117.049)
(0 0 -384.702)
(0 0 -644.96)
(0 0 -164.539)
(0 0 466.425)
(0 0 722.678)
(0 0 746.243)
(0 0 671.334)
(0 0 565.373)
(0 0 448.838)
(0 0 -120.215)
(0 0 -515.72)
(0 0 -718.129)
(0 0 -498.166)
(0 0 -642.548)
(0 0 -335.122)
(0 0 -553.366)
(0 0 -308.177)
(0 0 -488.811)
(0 0 -263.288)
(0 0 -353.233)
(0 0 12.6543)
(0 0 -134.197)
(0 0 316.557)
(0 0 143.7)
(0 0 38.6845)
(0 0 -8894.59)
(0 0 -6160.51)
(0 0 -8090.19)
(0 0 -12186.5)
(0 0 -5889.62)
(0 0 -2660.49)
(0 0 -1449.41)
(0 0 3686.16)
(0 0 12896)
(0 0 8658.17)
(0 0 10600.2)
(0 0 9012.52)
(0 0 7285.99)
(0 0 13404.8)
(0 0 -1986.13)
(0 0 -15585.3)
(0 0 -18163.1)
(0 0 -11276.3)
(0 0 -15072.4)
(0 0 -24923.7)
(0 0 -23215.1)
(0 0 -19768.7)
(0 0 -21154.5)
(0 0 -24080.3)
(0 0 -35612.3)
(0 0 -32258.3)
(0 0 -28850.7)
(0 0 -21011.6)
(0 0 -15602.2)
(0 0 -11727.1)
(0 0 3577.91)
(0 0 -11263.9)
(0 0 -13040.8)
(0 0 -9894.37)
(0 0 -8128.17)
(0 0 -14058.1)
(0 0 -7281.69)
(0 0 -2023.13)
(0 0 18.6135)
(0 0 -9914.05)
(0 0 -169.87)
(0 0 8628.79)
(0 0 -3916.78)
(0 0 -7152.3)
(0 0 -9564.66)
(0 0 -6844.4)
(0 0 -4722.17)
(0 0 -6206.86)
(0 0 -7129.78)
(0 0 -6884.28)
(0 0 -4751.41)
(0 0 -3169.46)
(0 0 -1684.65)
(0 0 -911.739)
(0 0 -386.746)
(0 0 127.823)
(0 0 293.948)
(0 0 400.934)
(0 0 332.08)
(0 0 826.661)
(0 0 618.119)
(0 0 904.859)
(0 0 610.432)
(0 0 902.76)
(0 0 739.141)
(0 0 956.008)
(0 0 790.461)
(0 0 588.879)
(0 0 738.94)
(0 0 543.365)
(0 0 581.356)
(0 0 675.739)
(0 0 307.941)
(0 0 62.503)
(0 0 79.8653)
(0 0 -854.513)
(0 0 -445.302)
(0 0 -642.146)
(0 0 333.842)
(0 0 494.751)
(0 0 703.857)
(0 0 616.364)
(0 0 596.386)
(0 0 304.803)
(0 0 -64.7609)
(0 0 -455.797)
(0 0 -913.402)
(0 0 -665.462)
(0 0 -374.23)
(0 0 -644.143)
(0 0 -371.544)
(0 0 -520.296)
(0 0 -359.506)
(0 0 -512.739)
(0 0 -221.705)
(0 0 -165.934)
(0 0 -101.849)
(0 0 325.65)
(0 0 385.266)
(0 0 221.099)
(0 0 -9066.82)
(0 0 -5794.52)
(0 0 -8895.32)
(0 0 -14640)
(0 0 -9896.75)
(0 0 -7722.45)
(0 0 -6373.52)
(0 0 -2729.58)
(0 0 4844.9)
(0 0 3997.77)
(0 0 1397.62)
(0 0 2348.11)
(0 0 -4646.69)
(0 0 295.813)
(0 0 1239.85)
(0 0 -20389.7)
(0 0 -21927.6)
(0 0 -14981.7)
(0 0 -21157.4)
(0 0 -28621.7)
(0 0 -23860.9)
(0 0 -23158.2)
(0 0 -24430.1)
(0 0 -24242.9)
(0 0 -37001.1)
(0 0 -32917.9)
(0 0 -27270.8)
(0 0 -22503.1)
(0 0 -13546.9)
(0 0 -6386.82)
(0 0 -2850.23)
(0 0 -3154.31)
(0 0 -16318.8)
(0 0 -8636.41)
(0 0 -9329.37)
(0 0 -15647.3)
(0 0 -4807.74)
(0 0 -3873.97)
(0 0 -3947.68)
(0 0 -11050.2)
(0 0 -6762.87)
(0 0 12834.3)
(0 0 2069.17)
(0 0 -4474.58)
(0 0 -7913.75)
(0 0 -5195.14)
(0 0 -5138.91)
(0 0 -6125.07)
(0 0 -6612.56)
(0 0 -6412.71)
(0 0 -4771.05)
(0 0 -2703.07)
(0 0 -1509.52)
(0 0 -870.266)
(0 0 -369.294)
(0 0 -232.012)
(0 0 204.986)
(0 0 368.44)
(0 0 637.077)
(0 0 592.365)
(0 0 970.151)
(0 0 736.785)
(0 0 907.854)
(0 0 761.252)
(0 0 909.462)
(0 0 838.785)
(0 0 607.055)
(0 0 728.663)
(0 0 585.579)
(0 0 756.881)
(0 0 809.333)
(0 0 592.336)
(0 0 588.911)
(0 0 123.913)
(0 0 -8.00445)
(0 0 -922.598)
(0 0 -560.379)
(0 0 -641.443)
(0 0 -61.743)
(0 0 453.407)
(0 0 518.131)
(0 0 623.871)
(0 0 491.129)
(0 0 269.39)
(0 0 -396.892)
(0 0 -754.823)
(0 0 -971.143)
(0 0 -432.844)
(0 0 -645.146)
(0 0 -395.088)
(0 0 -611.901)
(0 0 -394.687)
(0 0 -556.657)
(0 0 -381.947)
(0 0 -487.218)
(0 0 -121.182)
(0 0 113.219)
(0 0 143.104)
(0 0 403.212)
(0 0 311.878)
(0 0 -9458.98)
(0 0 -5284.77)
(0 0 -9336.85)
(0 0 -17498.3)
(0 0 -13489.7)
(0 0 -11673.2)
(0 0 -10864.8)
(0 0 -9321.21)
(0 0 -793.508)
(0 0 -1699.09)
(0 0 -6351.64)
(0 0 -2260.37)
(0 0 -13225)
(0 0 -8479.78)
(0 0 2123.51)
(0 0 -16550)
(0 0 -14314.2)
(0 0 -14927.5)
(0 0 -24137.4)
(0 0 -28017.8)
(0 0 -24918.6)
(0 0 -27337.2)
(0 0 -27075.3)
(0 0 -27002.6)
(0 0 -36801.7)
(0 0 -33562.1)
(0 0 -28441)
(0 0 -23171.7)
(0 0 -14789.2)
(0 0 3495.86)
(0 0 -17557.7)
(0 0 -5112.94)
(0 0 -9871.24)
(0 0 -8476.91)
(0 0 -11875.7)
(0 0 -17036.9)
(0 0 -4466.51)
(0 0 -5532.18)
(0 0 -6120.16)
(0 0 -14632.6)
(0 0 -11867.1)
(0 0 10342.9)
(0 0 1816.11)
(0 0 -1690.26)
(0 0 -3100.05)
(0 0 -2633.06)
(0 0 -4700.55)
(0 0 -6270.05)
(0 0 -5900.52)
(0 0 -5729.08)
(0 0 -4127.22)
(0 0 -2364.17)
(0 0 -1439.96)
(0 0 -1089.49)
(0 0 -593.342)
(0 0 -458.46)
(0 0 116.463)
(0 0 505.459)
(0 0 480.829)
(0 0 938.88)
(0 0 808.192)
(0 0 971.201)
(0 0 647.433)
(0 0 996.012)
(0 0 855.342)
(0 0 493.894)
(0 0 712.919)
(0 0 554.439)
(0 0 677.111)
(0 0 542.113)
(0 0 740.298)
(0 0 813.464)
(0 0 425.232)
(0 0 346.3)
(0 0 -215.757)
(0 0 -452.456)
(0 0 -969.186)
(0 0 -360.648)
(0 0 -144.741)
(0 0 144.925)
(0 0 501.436)
(0 0 442.785)
(0 0 519.814)
(0 0 -12.4432)
(0 0 -366.998)
(0 0 -873.331)
(0 0 -653.995)
(0 0 -591.903)
(0 0 -385.522)
(0 0 -630.794)
(0 0 -458.881)
(0 0 -586.987)
(0 0 -430.391)
(0 0 -601.157)
(0 0 -360.522)
(0 0 -427.892)
(0 0 -23.2478)
(0 0 186.506)
(0 0 307.784)
(0 0 405.294)
(0 0 -9398.88)
(0 0 -4876.73)
(0 0 -9470.86)
(0 0 -19560.6)
(0 0 -17746.7)
(0 0 -15217.5)
(0 0 -13993.7)
(0 0 -13635.1)
(0 0 -6100.13)
(0 0 -6194.22)
(0 0 -13778.9)
(0 0 -11140)
(0 0 -19745.8)
(0 0 -15440.7)
(0 0 769.759)
(0 0 3884.3)
(0 0 -3305.27)
(0 0 -5215.53)
(0 0 -21701.8)
(0 0 -25877.5)
(0 0 -23674.9)
(0 0 -28592.3)
(0 0 -30095.1)
(0 0 -29030.5)
(0 0 -35467.5)
(0 0 -32112.3)
(0 0 -28400.3)
(0 0 -21085.7)
(0 0 -15917.4)
(0 0 -10561.7)
(0 0 -21280.6)
(0 0 -16037.8)
(0 0 -15081.8)
(0 0 -7592.35)
(0 0 -11161.4)
(0 0 -16810.7)
(0 0 -3117.72)
(0 0 -10988)
(0 0 -7215.49)
(0 0 -18747.9)
(0 0 -16271.1)
(0 0 4411.12)
(0 0 -4989.13)
(0 0 -2437.65)
(0 0 2437.24)
(0 0 1020.44)
(0 0 -4919.97)
(0 0 -6352.07)
(0 0 -6299.69)
(0 0 -5225.37)
(0 0 -3279.81)
(0 0 -1713.33)
(0 0 -1182.02)
(0 0 -1012.59)
(0 0 -765.007)
(0 0 -429.728)
(0 0 -20.1381)
(0 0 558.819)
(0 0 713.937)
(0 0 752.924)
(0 0 1083.99)
(0 0 837.592)
(0 0 699.398)
(0 0 930.367)
(0 0 605.356)
(0 0 701.705)
(0 0 554.154)
(0 0 644.7)
(0 0 500.061)
(0 0 601.166)
(0 0 515.789)
(0 0 761.624)
(0 0 502.075)
(0 0 159.521)
(0 0 85.0105)
(0 0 -786.152)
(0 0 -488.204)
(0 0 -670.191)
(0 0 -158.381)
(0 0 101.582)
(0 0 238.549)
(0 0 426.743)
(0 0 224.232)
(0 0 -40.1484)
(0 0 -554.365)
(0 0 -678.684)
(0 0 -698.928)
(0 0 -368.636)
(0 0 -685.075)
(0 0 -361.908)
(0 0 -677.723)
(0 0 -461.181)
(0 0 -590.284)
(0 0 -442.672)
(0 0 -540.934)
(0 0 -395.004)
(0 0 14.4)
(0 0 161.836)
(0 0 287.193)
(0 0 452.275)
(0 0 -9641.93)
(0 0 -4085.92)
(0 0 -9669.55)
(0 0 -22015.7)
(0 0 -21759.9)
(0 0 -18840.4)
(0 0 -16457.1)
(0 0 -17788.9)
(0 0 -7871.21)
(0 0 -8477.25)
(0 0 -18007.8)
(0 0 -19267.1)
(0 0 -24707.1)
(0 0 -17274.7)
(0 0 48.649)
(0 0 9124.41)
(0 0 31007.1)
(0 0 3110.21)
(0 0 -19390)
(0 0 -16411.6)
(0 0 -18880.6)
(0 0 -28847.6)
(0 0 -30861.8)
(0 0 -29873.1)
(0 0 -34900.3)
(0 0 -29982.3)
(0 0 -26404)
(0 0 -19061.3)
(0 0 -10937.5)
(0 0 -18397)
(0 0 -23586.5)
(0 0 -18271.1)
(0 0 -15147.8)
(0 0 -6417.7)
(0 0 -9286.61)
(0 0 -15803)
(0 0 -3995.99)
(0 0 -14887.4)
(0 0 -12735.3)
(0 0 -22109.2)
(0 0 -13084)
(0 0 6624.99)
(0 0 -8145.77)
(0 0 -2767.32)
(0 0 3321.88)
(0 0 1569.84)
(0 0 -4429.82)
(0 0 -6608.45)
(0 0 -5696.48)
(0 0 -4528.25)
(0 0 -2335.19)
(0 0 -1079.34)
(0 0 -894.83)
(0 0 -1045.54)
(0 0 -654.38)
(0 0 -561.075)
(0 0 -87.6006)
(0 0 618.355)
(0 0 837.728)
(0 0 1038.02)
(0 0 1016.89)
(0 0 1121.86)
(0 0 1016.46)
(0 0 682.007)
(0 0 639.376)
(0 0 539.593)
(0 0 631.367)
(0 0 483.323)
(0 0 565.947)
(0 0 432.939)
(0 0 580.633)
(0 0 623.026)
(0 0 754.971)
(0 0 252.424)
(0 0 -137.524)
(0 0 -443.39)
(0 0 -869.414)
(0 0 -458.929)
(0 0 -488.773)
(0 0 219.63)
(0 0 210.108)
(0 0 112.766)
(0 0 224.592)
(0 0 -320.919)
(0 0 -430.825)
(0 0 -736.224)
(0 0 -412.029)
(0 0 -246.938)
(0 0 -741.033)
(0 0 -436.341)
(0 0 -516.808)
(0 0 -635.36)
(0 0 -459.265)
(0 0 -614.777)
(0 0 -333.347)
(0 0 -207.807)
(0 0 2.24704)
(0 0 167.764)
(0 0 272.946)
(0 0 407.257)
(0 0 -9575.09)
(0 0 -3241.06)
(0 0 -9283.35)
(0 0 -23007.4)
(0 0 -26243.9)
(0 0 -22227)
(0 0 -18304.7)
(0 0 -20619.3)
(0 0 -9922.52)
(0 0 -8954.27)
(0 0 -21925)
(0 0 -25481.9)
(0 0 -26362.8)
(0 0 -19913.6)
(0 0 8802.84)
(0 0 9127.61)
(0 0 15899.3)
(0 0 12460.9)
(0 0 -6198.36)
(0 0 4470.41)
(0 0 637.656)
(0 0 -22137.5)
(0 0 -25482.6)
(0 0 -28177.4)
(0 0 -30523.9)
(0 0 -25984.9)
(0 0 -20845.2)
(0 0 -16572.9)
(0 0 -8273.71)
(0 0 -21218.4)
(0 0 -22127.3)
(0 0 -15649.5)
(0 0 -13361.5)
(0 0 -9533.74)
(0 0 -8325.32)
(0 0 -13123.2)
(0 0 -5327.2)
(0 0 -17452.6)
(0 0 -17321.3)
(0 0 -22919.9)
(0 0 -5230.07)
(0 0 4267.64)
(0 0 -8128.46)
(0 0 1256.92)
(0 0 3753.87)
(0 0 -2020.07)
(0 0 -6400.83)
(0 0 -7896.88)
(0 0 -5014.92)
(0 0 -2500.11)
(0 0 -1002.16)
(0 0 -207.119)
(0 0 -626.772)
(0 0 -678.912)
(0 0 -695.846)
(0 0 -571.92)
(0 0 -93.5961)
(0 0 614.14)
(0 0 824.49)
(0 0 1063.04)
(0 0 1141.99)
(0 0 1018.03)
(0 0 904.498)
(0 0 714.438)
(0 0 560.76)
(0 0 563.292)
(0 0 485.747)
(0 0 532.199)
(0 0 411.843)
(0 0 478.224)
(0 0 423.458)
(0 0 714.158)
(0 0 679.113)
(0 0 681.495)
(0 0 185.247)
(0 0 -671.298)
(0 0 -331.036)
(0 0 -771.683)
(0 0 -417.22)
(0 0 -19.0164)
(0 0 325.864)
(0 0 46.9048)
(0 0 -160.553)
(0 0 -241.334)
(0 0 -546.664)
(0 0 -478.58)
(0 0 -208.994)
(0 0 -412.768)
(0 0 -485.93)
(0 0 -822.711)
(0 0 -697.806)
(0 0 -499.056)
(0 0 -596.71)
(0 0 -457.367)
(0 0 -453.359)
(0 0 -63.0049)
(0 0 26.2858)
(0 0 114.525)
(0 0 164.107)
(0 0 463.136)
(0 0 -9781.89)
(0 0 -2121.39)
(0 0 -7784.67)
(0 0 -22913.2)
(0 0 -29405.2)
(0 0 -24742.9)
(0 0 -20140.5)
(0 0 -23163.4)
(0 0 -11399.6)
(0 0 -7836.63)
(0 0 -21704)
(0 0 -29561.7)
(0 0 -23192.3)
(0 0 -13683.6)
(0 0 6777.89)
(0 0 38639.4)
(0 0 4362.9)
(0 0 25148.7)
(0 0 33162.9)
(0 0 34037.4)
(0 0 29923.5)
(0 0 7491.72)
(0 0 -6558.68)
(0 0 -20427.8)
(0 0 -22117.6)
(0 0 -18705.8)
(0 0 -10488.1)
(0 0 -9291.35)
(0 0 -5056.24)
(0 0 -20797.6)
(0 0 -16497.3)
(0 0 -8899.98)
(0 0 -6919.6)
(0 0 -4797.88)
(0 0 -4729.12)
(0 0 -7620.79)
(0 0 -3622.76)
(0 0 -19658.5)
(0 0 -19912.5)
(0 0 -17521.3)
(0 0 2817.81)
(0 0 1281.37)
(0 0 -8167.29)
(0 0 1281.8)
(0 0 1398.33)
(0 0 -3685.39)
(0 0 -6947.5)
(0 0 -6436.82)
(0 0 -2142.83)
(0 0 290.66)
(0 0 665.47)
(0 0 514.81)
(0 0 -191.553)
(0 0 -618.587)
(0 0 -648.454)
(0 0 -459.188)
(0 0 -62.6903)
(0 0 633.987)
(0 0 878.174)
(0 0 980.534)
(0 0 1102.48)
(0 0 1203.45)
(0 0 948.49)
(0 0 699.311)
(0 0 573.446)
(0 0 456.091)
(0 0 492.45)
(0 0 396.536)
(0 0 439.106)
(0 0 323.163)
(0 0 443.107)
(0 0 560.562)
(0 0 810.405)
(0 0 579.557)
(0 0 362.014)
(0 0 -392.056)
(0 0 -729.561)
(0 0 -562.38)
(0 0 -686.322)
(0 0 0.0247139)
(0 0 101.343)
(0 0 200.455)
(0 0 -24.4021)
(0 0 -513.654)
(0 0 -340.956)
(0 0 -489.823)
(0 0 -219.442)
(0 0 -257.464)
(0 0 -632.478)
(0 0 -701.131)
(0 0 -516.206)
(0 0 -645.701)
(0 0 -464.069)
(0 0 -625.111)
(0 0 -320.912)
(0 0 -106.608)
(0 0 -0.861008)
(0 0 213.417)
(0 0 236.276)
(0 0 260.209)
(0 0 -9789.16)
(0 0 -1193.53)
(0 0 -5420.97)
(0 0 -21727.9)
(0 0 -32721.9)
(0 0 -28932.8)
(0 0 -21317.3)
(0 0 -25751.3)
(0 0 -9941.83)
(0 0 -4699.75)
(0 0 -16637.7)
(0 0 -26224.5)
(0 0 -10729)
(0 0 1605.8)
(0 0 -20646.7)
(0 0 11168.5)
(0 0 12914.3)
(0 0 13141.1)
(0 0 15662.7)
(0 0 2877.98)
(0 0 26115.6)
(0 0 50337.1)
(0 0 15718.9)
(0 0 -3640.65)
(0 0 -11847.9)
(0 0 -17339.7)
(0 0 -14073.1)
(0 0 3817.59)
(0 0 -9837.86)
(0 0 -20773.4)
(0 0 -3792.93)