/*--------------------------------*- C++ -*----------------------------------*\
| =========                 |                                                 |
| \\      /  F ield         | foam-extend: Open Source CFD                    |
|  \\    /   O peration     | Version:     5.0                                |
|   \\  /    A nd           | Web:         http://www.foam-extend.org         |
|    \\/     M anipulation  |                                                 |
\*---------------------------------------------------------------------------*/
FoamFile
{
    version     2.0;
    format      ascii;
    class       volScalarField;
    location    "0.1";
    object      p;
}
// * * * * * * * * * * * * * * * * * * * * * * * * * * * * * * * * * * * * * //

dimensions      [1 -1 -2 0 0 0 0];

internalField   nonuniform List<scalar> 
4000
(
-2.54847e+07
-2.31766e+07
-2.17203e+07
-2.10813e+07
-2.0622e+07
-2.01947e+07
-1.97511e+07
-1.96727e+07
-1.95989e+07
-1.85751e+07
-1.7028e+07
-1.59624e+07
-1.52683e+07
-1.50082e+07
-1.45003e+07
-1.38058e+07
-1.35568e+07
-1.33143e+07
-1.25798e+07
-1.16667e+07
-1.08507e+07
-9.98913e+06
-8.72398e+06
-7.67092e+06
-7.14826e+06
-6.87465e+06
-6.58719e+06
-5.74179e+06
-4.56708e+06
-3.9969e+06
-3.82713e+06
-3.74811e+06
-3.55888e+06
-3.30562e+06
-2.98775e+06
-2.6492e+06
-1.82308e+06
-929818
-642216
-617025
-505354
-367226
-307488
-362751
-366872
-315947
-225503
-118191
-28351.1
32432.9
63603.3
73179.7
68951.3
60360.8
51159.7
43189.3
37208.9
33764.4
31162.3
29202
28228.9
28015.6
28217
28202.2
26859.8
23914.7
21523.8
19848.5
18181.5
16618.7
14661.3
12528.6
11263.8
11293.7
11670.3
11683.1
11105.6
9543.45
7116.7
4823.5
2992.51
1301.96
179.53
-84.3513
219.525
147.173
-655.672
-951.169
-638.231
-248.039
-71.0228
-393.669
-535.965
-29.3205
603.509
898.351
981.395
726.725
-303.878
-380.26
-2.53989e+07
-2.30678e+07
-2.17599e+07
-2.11116e+07
-2.06224e+07
-2.01599e+07
-1.97142e+07
-1.96038e+07
-1.96408e+07
-1.86897e+07
-1.69888e+07
-1.58264e+07
-1.52305e+07
-1.50632e+07
-1.4395e+07
-1.36085e+07
-1.33816e+07
-1.31553e+07
-1.25754e+07
-1.17085e+07
-1.07973e+07
-9.94652e+06
-8.67819e+06
-7.58205e+06
-7.09563e+06
-6.94849e+06
-6.59879e+06
-5.67368e+06
-4.47438e+06
-3.99384e+06
-3.8697e+06
-3.804e+06
-3.63487e+06
-3.44225e+06
-3.08802e+06
-2.6798e+06
-1.79518e+06
-952535
-645049
-616871
-493987
-352436
-304990
-363132
-375837
-319268
-225281
-116556
-25235.9
34539.8
65118.8
73736.4
69047.6
60272
51098.8
43144.4
37247.8
33760
31194.4
29258.2
28205
27954.8
28164.9
28162
26768.4
23777.3
21436.4
19769.6
18139.1
16599.4
14615
12481.3
11225.4
11242.7
11594.2
11619.5
11072
9541.17
7117.27
4821.08
3010.08
1322.21
136.604
-114.952
177.609
117.201
-645.41
-898.578
-585.879
-223.152
-34.5818
-352.655
-509.91
-6.92924
632.24
922.698
993.198
784.768
-274.924
-402.179
-2.5294e+07
-2.29296e+07
-2.1824e+07
-2.11759e+07
-2.06556e+07
-2.0167e+07
-1.97052e+07
-1.95554e+07
-1.96265e+07
-1.88692e+07
-1.69285e+07
-1.54531e+07
-1.50241e+07
-1.51211e+07
-1.43813e+07
-1.35237e+07
-1.32337e+07
-1.30231e+07
-1.25996e+07
-1.17665e+07
-1.08339e+07
-9.90801e+06
-8.60844e+06
-7.51573e+06
-7.16477e+06
-7.08706e+06
-6.60458e+06
-5.71538e+06
-4.40355e+06
-3.98214e+06
-3.92139e+06
-3.83164e+06
-3.675e+06
-3.47316e+06
-3.15415e+06
-2.74885e+06
-1.83697e+06
-971607
-646897
-611759
-499504
-362742
-311903
-386400
-423722
-369803
-258236
-131637
-28693.7
35188.1
66772.4
74870.2
69265.4
60217.3
50936.4
42998.2
37174.9
33656.6
31115.1
29292
28184.8
27901.7
28107.2
28130.7
26733.6
23659.7
21346.1
19672.9
18029.8
16555.9
14570.9
12400.4
11171
11200.4
11527
11587.4
11069.2
9549.78
7099.36
4776.6
3007.93
1240.84
70.7144
-129.464
151.068
102.682
-613.693
-882.521
-562.356
-242.34
-27.9257
-291.067
-488.686
-3.19195
650.198
932.597
1008.55
843.034
-251.337
-439.72
-2.52026e+07
-2.28088e+07
-2.19001e+07
-2.12648e+07
-2.06723e+07
-2.02122e+07
-1.97208e+07
-1.94887e+07
-1.95074e+07
-1.89141e+07
-1.68187e+07
-1.52937e+07
-1.49424e+07
-1.5283e+07
-1.44488e+07
-1.35139e+07
-1.32129e+07
-1.29857e+07
-1.25985e+07
-1.18434e+07
-1.0825e+07
-9.9309e+06
-8.70504e+06
-7.53731e+06
-7.16911e+06
-7.07193e+06
-6.60641e+06
-5.76456e+06
-4.35358e+06
-3.95634e+06
-3.95858e+06
-3.85758e+06
-3.70182e+06
-3.39425e+06
-3.20114e+06
-2.77803e+06
-1.87781e+06
-1.02186e+06
-682604
-622801
-511670
-386056
-323059
-388476
-432509
-401779
-305938
-164991
-41397.4
32545.2
67721.2
75774.7
69365.7
59919
50548.1
42557.8
36965.5
33484.6
30997.5
29321.5
28165
27875.7
28024.3
28060.4
26710.1
23606.3
21288.5
19564.9
17977.9
16584.3
14508.2
12310.5
11098.5
11159.4
11485.3
11550.7
11077
9501.54
7081.94
4737.54
2922.58
1198.35
36.4738
-124.13
144.052
77.0813
-599.292
-795.844
-529.994
-225.73
-54.0042
-246.781
-441.406
15.698
649.12
924.818
1015.48
919.847
-240.692
-501.143
-2.51314e+07
-2.2699e+07
-2.19806e+07
-2.1344e+07
-2.06696e+07
-2.02558e+07
-1.97488e+07
-1.94426e+07
-1.94011e+07
-1.87861e+07
-1.66932e+07
-1.53592e+07
-1.50638e+07
-1.54724e+07
-1.43523e+07
-1.34989e+07
-1.32413e+07
-1.29805e+07
-1.25654e+07
-1.18065e+07
-1.08065e+07
-1.007e+07
-8.89203e+06
-7.63547e+06
-7.26063e+06
-7.02586e+06
-6.53885e+06
-5.62609e+06
-4.37528e+06
-3.92437e+06
-3.91865e+06
-3.8471e+06
-3.7342e+06
-3.36887e+06
-3.22375e+06
-2.80627e+06
-1.93586e+06
-1.13203e+06
-745006
-644083
-519312
-409950
-337525
-377693
-424536
-399987
-323755
-198002
-63055.3
25058.8
66939
76028.9
68905.3
59265.2
49866.7
41926.4
36601.2
33193.4
30839.1
29268
28050.6
27829.8
27932.7
27961
26640.7
23686.3
21271.8
19447.8
18061.7
16702.3
14436.9
12204.9
11031
11104.7
11404.8
11493.1
11062.4
9533.89
7041.46
4693.38
2827.63
1132.46
-3.99544
-135.596
182.971
81.1619
-602.627
-782.749
-450.818
-294.124
-127.338
-249.613
-409.393
51.7599
652.179
901.322
1002.53
995.358
-240.892
-585.612
-2.50757e+07
-2.2602e+07
-2.2062e+07
-2.13912e+07
-2.06545e+07
-2.02416e+07
-1.97876e+07
-1.94161e+07
-1.93128e+07
-1.86149e+07
-1.66141e+07
-1.54479e+07
-1.52738e+07
-1.55372e+07
-1.42125e+07
-1.34509e+07
-1.3199e+07
-1.29879e+07
-1.25478e+07
-1.17252e+07
-1.07542e+07
-1.02461e+07
-9.11504e+06
-7.75646e+06
-7.35877e+06
-6.89483e+06
-6.27612e+06
-5.33103e+06
-4.45966e+06
-3.89185e+06
-3.80747e+06
-3.76126e+06
-3.71352e+06
-3.42378e+06
-3.21627e+06
-2.83517e+06
-2.01097e+06
-1.23971e+06
-796979
-653347
-513867
-432350
-357696
-363870
-401446
-385274
-325268
-216918
-84397.4
13310.2
63510.8
74956
67820.6
58026.4
48853.2
41123.5
36072.5
32754.7
30574.9
29158.1
27919.4
27767.2
27858.3
27842.4
26593.3
23784.9
21376.9
19490.9
18173.4
16760.5
14381.1
12104.9
10957.9
11045.7
11282.7
11407.8
11051.1
9562.28
7033.73
4627.89
2720.2
1073.89
-48.9311
-104.649
245.081
81.6506
-640.278
-744.8
-454.207
-415.074
-209.086
-310.637
-384.706
83.6469
640.844
869.114
981.756
1057.44
-253.776
-675.054
-2.50293e+07
-2.2525e+07
-2.21424e+07
-2.14175e+07
-2.0632e+07
-2.01569e+07
-1.98061e+07
-1.93999e+07
-1.92679e+07
-1.84396e+07
-1.65649e+07
-1.55043e+07
-1.53837e+07
-1.54975e+07
-1.41611e+07
-1.33821e+07
-1.31677e+07
-1.29653e+07
-1.25387e+07
-1.1684e+07
-1.07075e+07
-1.03877e+07
-9.28072e+06
-7.86803e+06
-7.32088e+06
-6.74499e+06
-6.15508e+06
-5.11056e+06
-4.41016e+06
-3.83319e+06
-3.72463e+06
-3.79453e+06
-3.67434e+06
-3.43859e+06
-3.19086e+06
-2.84207e+06
-2.1013e+06
-1.31968e+06
-809970
-629390
-487097
-438927
-373926
-356626
-384217
-363801
-314085
-223238
-101123
1193.09
58193.1
72173.9
65916.4
56195.8
47492.1
40209.5
35428.1
32246.3
30235.9
28888.8
27704.3
27628.8
27689.8
27660.4
26521.8
23970
21521.6
19509.2
18252.1
16782.2
14448.3
12089.7
10873.7
10991.9
11158.9
11291.8
11045.6
9620.18
7002.24
4559.23
2639.96
1015.76
-57.9777
-54.8561
337.456
52.924
-695.557
-762.724
-576.062
-510.998
-316.376
-365.061
-355.418
106.955
605.936
830.294
959.59
1100.47
-259.624
-748.733
-2.499e+07
-2.24791e+07
-2.22165e+07
-2.14451e+07
-2.06112e+07
-2.00513e+07
-1.97933e+07
-1.9395e+07
-1.92384e+07
-1.82719e+07
-1.65714e+07
-1.55528e+07
-1.5407e+07
-1.53954e+07
-1.41488e+07
-1.33216e+07
-1.31511e+07
-1.29781e+07
-1.26224e+07
-1.17063e+07
-1.07559e+07
-1.04833e+07
-9.33597e+06
-7.86531e+06
-7.13364e+06
-6.65338e+06
-6.13483e+06
-4.9389e+06
-4.43063e+06
-3.83917e+06
-3.68531e+06
-3.78653e+06
-3.65453e+06
-3.41891e+06
-3.14797e+06
-2.8427e+06
-2.17607e+06
-1.39413e+06
-830604
-581233
-455518
-431263
-382788
-344942
-369219
-345782
-303141
-220734
-109124
-9337.97
51081.7
68582.2
63224.4
53833.4
45931.2
39284.2
34776.9
31681.2
29907.8
28591.1
27477.9
27437.7
27452.5
27461.1
26457
24148.4
21671.5
19519.7
18248.6
16895.1
14578.8
12115
10858.4
10951.6
11003.5
11132.8
11082.3
9700.4
6995.92
4447.77
2570.84
992.738
-61.2026
30.3332
414.841
-8.00482
-832.647
-890.09
-665.053
-623.288
-471.824
-472.081
-389.471
99.393
565.335
783.367
941.704
1157.24
-247.758
-808.918
-2.49382e+07
-2.24873e+07
-2.22904e+07
-2.148e+07
-2.05868e+07
-1.99664e+07
-1.97579e+07
-1.94343e+07
-1.92119e+07
-1.8102e+07
-1.6527e+07
-1.55707e+07
-1.54071e+07
-1.53292e+07
-1.41589e+07
-1.33094e+07
-1.31164e+07
-1.29915e+07
-1.27187e+07
-1.17535e+07
-1.09007e+07
-1.05972e+07
-9.33025e+06
-7.84419e+06
-6.84355e+06
-6.58362e+06
-5.99921e+06
-4.88099e+06
-4.57623e+06
-3.84712e+06
-3.61799e+06
-3.74682e+06
-3.63593e+06
-3.39468e+06
-3.11889e+06
-2.84348e+06
-2.20943e+06
-1.44917e+06
-876904
-575329
-453667
-421975
-382986
-329862
-354672
-330426
-292253
-219235
-113173
-14643.8
45071.6
64587.1
60281.6
51103.7
44075.3
38294
34110.5
31120.2
29548.1
28361.6
27295.1
27241.3
27171.4
27229.5
26373.1
24334.2
21811.1
19514.6
18238.4
16979.5
14748.7
12251.7
10915.9
10867.2
10801.1
10952.4
11101.1
9831.63
6996.85
4371.74
2489.65
1001.77
-22.2242
143.661
507.529
-126.734
-973.464
-1037.65
-783.826
-758.636
-642.61
-585.715
-418.692
97.2187
527.757
725.276
929.867
1228.54
-234.771
-848.265
-2.48711e+07
-2.25294e+07
-2.23787e+07
-2.15236e+07
-2.05511e+07
-1.99204e+07
-1.97144e+07
-1.95446e+07
-1.91811e+07
-1.7887e+07
-1.63587e+07
-1.55609e+07
-1.54377e+07
-1.53414e+07
-1.41492e+07
-1.32966e+07
-1.30809e+07
-1.29296e+07
-1.27104e+07
-1.18205e+07
-1.10201e+07
-1.06373e+07
-9.37024e+06
-7.81173e+06
-6.54433e+06
-6.53482e+06
-5.84753e+06
-4.92939e+06
-4.65789e+06
-3.82577e+06
-3.56264e+06
-3.72086e+06
-3.60196e+06
-3.34332e+06
-3.1039e+06
-2.8388e+06
-2.20812e+06
-1.47408e+06
-903687
-591353
-469234
-416306
-374192
-315773
-339455
-318418
-283667
-215767
-117064
-18896
42365.4
61455.9
57360.1
48424.6
42018.2
37294.7
33463.8
30544
29126.9
28125.3
27224
27047.5
26898.2
26986.4
26273.1
24445.1
21910
19519.3
18199.5
17033.2
14978.9
12432.7
10962.3
10791.4
10537.5
10683.3
11131.2
9955.67
7045.35
4285.51
2414.44
923.36
20.3548
305.697
566.587
-240.007
-1198.86
-1163.85
-951.742
-879.142
-754.725
-723.921
-496.997
67.0544
498.503
658.448
947.242
1312.63
-170.518
-846.112
-2.48085e+07
-2.25832e+07
-2.24795e+07
-2.1575e+07
-2.0519e+07
-1.9907e+07
-1.96647e+07
-1.96677e+07
-1.91618e+07
-1.76135e+07
-1.61121e+07
-1.55424e+07
-1.55041e+07
-1.53853e+07
-1.41355e+07
-1.32569e+07
-1.30368e+07
-1.28289e+07
-1.26656e+07
-1.18177e+07
-1.10532e+07
-1.058e+07
-9.45707e+06
-7.90379e+06
-6.51918e+06
-6.47555e+06
-5.76341e+06
-5.04081e+06
-4.67954e+06
-3.81459e+06
-3.49987e+06
-3.70121e+06
-3.60226e+06
-3.30269e+06
-3.08996e+06
-2.81809e+06
-2.19349e+06
-1.50436e+06
-926877
-609492
-469711
-408789
-360078
-305164
-325651
-308873
-275864
-211761
-119026
-22020.5
40261.7
59916
55085.2
45688.2
40050.5
36198.8
32798.7
30012.7
28720.7
27924.1
27173.7
26931.3
26678.2
26727.5
26151
24520.2
21930.8
19582.1
18242.1
17135.2
15194.6
12620.7
11016.1
10679.9
10289.9
10350.9
11115.1
10084
7074.95
4225.09
2344.76
884.381
132.222
472.062
646.24
-465.037
-1441.14
-1355.25
-1140.39
-1020.78
-910.003
-874.332
-574.84
30.0712
461.916
581.604
963.98
1381.26
-74.9672
-794.348
-2.47375e+07
-2.26454e+07
-2.2581e+07
-2.16373e+07
-2.04861e+07
-1.98935e+07
-1.96305e+07
-1.97561e+07
-1.91733e+07
-1.73179e+07
-1.58594e+07
-1.55237e+07
-1.55927e+07
-1.54485e+07
-1.41129e+07
-1.3216e+07
-1.30159e+07
-1.28075e+07
-1.26788e+07
-1.17045e+07
-1.10135e+07
-1.05668e+07
-9.69329e+06
-8.05292e+06
-6.57867e+06
-6.44996e+06
-5.81328e+06
-5.14004e+06
-4.73459e+06
-3.82245e+06
-3.4551e+06
-3.69459e+06
-3.61312e+06
-3.28956e+06
-3.06891e+06
-2.7784e+06
-2.18771e+06
-1.5424e+06
-960049
-635379
-462516
-397718
-345009
-294405
-313265
-299980
-268079
-209573
-120133
-23592
39849.8
58994.1
53475.8
43316.1
37820.3
34929.6
32231.8
29608.6
28273.1
27718
27161.5
26844.3
26503
26520.4
26088
24543.2
21961.4
19627.6
18286.2
17239.7
15375
12781.9
11040.2
10605.5
9978.94
9922.69
11037.4
10181.5
7087.55
4145.81
2317.1
933.817
257.372
652.638
706.598
-646.937
-1719.42
-1600.64
-1360.15
-1199.03
-1077.89
-1023.93
-625.16
-27.1135
428.431
496.276
950.49
1429.06
24.9293
-695.36
-2.4654e+07
-2.27194e+07
-2.26819e+07
-2.17077e+07
-2.0453e+07
-1.98013e+07
-1.96201e+07
-1.97975e+07
-1.9195e+07
-1.70463e+07
-1.56348e+07
-1.55155e+07
-1.56886e+07
-1.55188e+07
-1.41006e+07
-1.31971e+07
-1.30373e+07
-1.28575e+07
-1.26671e+07
-1.16673e+07
-1.10112e+07
-1.0519e+07
-9.67975e+06
-8.15136e+06
-6.661e+06
-6.44447e+06
-5.84898e+06
-5.2379e+06
-4.83606e+06
-3.84877e+06
-3.44002e+06
-3.69379e+06
-3.61529e+06
-3.27854e+06
-3.05139e+06
-2.73397e+06
-2.19025e+06
-1.56941e+06
-988346
-655923
-445715
-380528
-329755
-283662
-301264
-291161
-261355
-209707
-122932
-25382
39914.6
59064.2
52074.2
41238.1
35592.7
33449.2
31562.6
29115.1
27836.7
27534.7
27164.1
26792.7
26359.7
26348.3
26005
24527.9
21979.3
19743.2
18392.5
17310.5
15571.4
13013.4
11037.5
10523.5
9675.23
9365.59
10756.3
10351.8
7004.79
4050.98
2351.75
1007.18
409.792
825.375
805.253
-945.316
-1977.89
-1823.66
-1615.7
-1398.17
-1270.99
-1180.59
-716.194
-66.5869
391.117
404.606
898.475
1468.31
176.23
-565.823
-2.4562e+07
-2.28015e+07
-2.27777e+07
-2.17794e+07
-2.0425e+07
-1.96678e+07
-1.96193e+07
-1.97028e+07
-1.91717e+07
-1.68374e+07
-1.54751e+07
-1.55247e+07
-1.57513e+07
-1.55562e+07
-1.41362e+07
-1.3281e+07
-1.31136e+07
-1.29117e+07
-1.25791e+07
-1.1651e+07
-1.09633e+07
-1.04316e+07
-9.58962e+06
-8.20922e+06
-6.75208e+06
-6.39879e+06
-5.85077e+06
-5.35773e+06
-4.93805e+06
-3.83152e+06
-3.43479e+06
-3.6921e+06
-3.61162e+06
-3.2709e+06
-3.03236e+06
-2.69105e+06
-2.19317e+06
-1.59229e+06
-1.02325e+06
-673654
-431785
-360654
-312452
-270657
-290466
-283885
-257495
-211918
-127117
-27984.3
39757.2
58647.2
50599.3
39238.7
33623.7
31914.9
30697.3
28502.4
27420.6
27402.9
27215.9
26785.7
26230
26197.9
25932.7
24546.6
22028.6
19805.6
18444.2
17427.1
15807.4
13229.9
11059.8
10463
9365.89
8699.16
10242.3
10429.7
6933.89
3908.28
2390.7
1141.43
581.341
1039.68
813.579
-1415.84
-2215.61
-1996.11
-1856.53
-1629.02
-1463.01
-1325.97
-816.676
-133.915
345.162
282.859
813.884
1481.03
354.343
-404.33
-2.44631e+07
-2.2887e+07
-2.28609e+07
-2.18467e+07
-2.04219e+07
-1.95724e+07
-1.95968e+07
-1.96197e+07
-1.91399e+07
-1.67056e+07
-1.54595e+07
-1.55414e+07
-1.57357e+07
-1.54149e+07
-1.41805e+07
-1.33855e+07
-1.31983e+07
-1.29892e+07
-1.24675e+07
-1.15864e+07
-1.09109e+07
-1.03313e+07
-9.47621e+06
-8.21469e+06
-6.84232e+06
-6.32865e+06
-5.8021e+06
-5.45044e+06
-5.01619e+06
-3.80598e+06
-3.40037e+06
-3.69053e+06
-3.61736e+06
-3.27278e+06
-3.00157e+06
-2.65324e+06
-2.1959e+06
-1.6149e+06
-1.06273e+06
-689152
-408723
-347651
-305464
-257010
-280934
-281836
-256909
-217479
-131435
-30789.6
38887.4
57834.4
48940.3
36977.3
31432.5
30327.5
29780.1
27982.9
27058.4
27304.6
27282.8
26807.9
26141.4
26026.6
25868.3
24556.8
22039.6
19882.5
18521.3
17491.4
16041.1
13481.7
11055
10372.6
9123.45
7853.48
9466.14
10390.6
6892.1
3745.44
2442.36
1285.32
805.913
1278.81
860.302
-1777.81
-2416.48
-2256.98
-2100.35
-1857.97
-1680.23
-1492.48
-933.961
-229.462
240.791
171.942
746.279
1456.35
502.914
-219.936
-2.43567e+07
-2.29697e+07
-2.29262e+07
-2.19072e+07
-2.04575e+07
-1.9535e+07
-1.95541e+07
-1.96236e+07
-1.90877e+07
-1.6634e+07
-1.5538e+07
-1.55653e+07
-1.57003e+07
-1.52484e+07
-1.42746e+07
-1.34891e+07
-1.32655e+07
-1.30946e+07
-1.23533e+07
-1.14661e+07
-1.08337e+07
-1.02233e+07
-9.34588e+06
-8.16821e+06
-6.90654e+06
-6.28707e+06
-5.73954e+06
-5.51013e+06
-5.03636e+06
-3.79799e+06
-3.3692e+06
-3.69429e+06
-3.62596e+06
-3.27228e+06
-2.94684e+06
-2.61925e+06
-2.18974e+06
-1.63806e+06
-1.09647e+06
-727628
-382257
-331295
-309423
-251616
-274556
-285099
-258689
-224215
-136129
-33726.5
38174.5
56241.3
46940.7
34664.8
29077.8
28585
28744.7
27560.2
26763.9
27258.4
27353.3
26858.7
26080.2
25877.8
25779.4
24473.2
22064.9
19986.8
18616.3
17595.3
16216.2
13773.8
11131.8
10183.7
8926.75
6870.04
8514.27
10311.9
6851.26
3526.83
2504.83
1446.52
1063.63
1664.68
958.267
-2042.08
-2697.82
-2501.69
-2341
-2099.36
-1895.26
-1655.43
-1075.89
-320.941
187.695
28.95
594.89
1391.26
653.544
-38.9886
-2.42432e+07
-2.30424e+07
-2.2974e+07
-2.19602e+07
-2.05277e+07
-1.95446e+07
-1.95378e+07
-1.96272e+07
-1.90021e+07
-1.66572e+07
-1.56337e+07
-1.5625e+07
-1.56513e+07
-1.51975e+07
-1.43939e+07
-1.35995e+07
-1.33086e+07
-1.31992e+07
-1.22541e+07
-1.13108e+07
-1.07328e+07
-1.01181e+07
-9.19763e+06
-8.06799e+06
-6.91344e+06
-6.28937e+06
-5.69871e+06
-5.53929e+06
-5.00206e+06
-3.81479e+06
-3.41106e+06
-3.70825e+06
-3.60987e+06
-3.25462e+06
-2.87035e+06
-2.61441e+06
-2.1796e+06
-1.64356e+06
-1.12888e+06
-817509
-356226
-289825
-322301
-265531
-271872
-291344
-265620
-231206
-141649
-36360.9
36205.1
53985.1
44827.4
32232.7
26713.9
26795.3
27775.7
27173.1
26581.4
27241.6
27466.8
26966.5
26041.6
25775.3
25613.6
24337.4
22114.1
20085.3
18697.7
17668.2
16409.4
14065.5
11204.6
10001.9
8681.44
5813.02
7500.8
9995.69
6911.57
3321.64
2532.18
1672.39
1427.08
2151.52
1058.98
-2260.04
-2895.72
-2707.49
-2589.28
-2346.61
-2099.59
-1806.6
-1214.8
-416.724
74.1454
-134.245
432.09
1273.43
780.719
155.133
-2.41246e+07
-2.30967e+07
-2.29996e+07
-2.20234e+07
-2.06327e+07
-1.95828e+07
-1.95346e+07
-1.95764e+07
-1.88889e+07
-1.66878e+07
-1.56882e+07
-1.56785e+07
-1.56042e+07
-1.52323e+07
-1.45075e+07
-1.3722e+07
-1.33399e+07
-1.32201e+07
-1.21508e+07
-1.11627e+07
-1.06405e+07
-1.00577e+07
-9.03501e+06
-7.91651e+06
-6.85405e+06
-6.29891e+06
-5.6483e+06
-5.54252e+06
-5.00788e+06
-3.82999e+06
-3.4621e+06
-3.74589e+06
-3.58796e+06
-3.22543e+06
-2.78874e+06
-2.61766e+06
-2.19274e+06
-1.64808e+06
-1.15632e+06
-898842
-335005
-244081
-335650
-295947
-272322
-291234
-275315
-244379
-148948
-38977.6
34007
51369.6
42607.1
29630.9
24330.7
25019.9
26790.6
26812.5
26463.8
27325
27640.8
27023.1
26107.1
25730.5
25445.3
24173.4
22161.2
20159.7
18763
17709
16560.4
14359.8
11306.5
9791
8448.3
4658.91
6363.56
9500.3
6965.71
3303.47
2577.08
1891.1
1884.28
2813.76
1177.03
-2384.46
-3017.67
-2929.66
-2829.28
-2589.9
-2318.97
-1963.4
-1357.51
-518.893
-21.5677
-322.613
201.43
1141.24
868.661
320.564
-2.40039e+07
-2.31205e+07
-2.30337e+07
-2.21021e+07
-2.07605e+07
-1.96402e+07
-1.95359e+07
-1.94943e+07
-1.87288e+07
-1.67148e+07
-1.57175e+07
-1.57035e+07
-1.5595e+07
-1.52699e+07
-1.46427e+07
-1.386e+07
-1.33709e+07
-1.3143e+07
-1.20611e+07
-1.10753e+07
-1.06404e+07
-1.0018e+07
-8.91518e+06
-7.7449e+06
-6.74732e+06
-6.27301e+06
-5.57933e+06
-5.50971e+06
-5.05942e+06
-3.84902e+06
-3.48598e+06
-3.76986e+06
-3.55485e+06
-3.21104e+06
-2.73299e+06
-2.60875e+06
-2.2329e+06
-1.66725e+06
-1.19794e+06
-927569
-319192
-210640
-354870
-326440
-277982
-291511
-276838
-262052
-156310
-40937.9
31501.7
48387.5
40450.2
26958.7
21904.4
23264.1
25860.1
26411.2
26302.6
27394.5
27868.7
27239.8
26170.8
25692.9
25227.2
24046.7
22143.8
20232.4
18838.5
17741.1
16648.2
14672.6
11523.7
9497.96
8053.79
3493.39
5193.09
8795.35
7010.88
3371.26
2630.44
2192.96
2515.18
3512.44
1301.91
-2476.47
-3132.64
-3062.95
-3094.3
-2939.63
-2507.19
-2108.16
-1512.01
-644.74
-114.322
-504.61
-53.1301
988.287
972.985
509.579
-2.38989e+07
-2.31137e+07
-2.30866e+07
-2.2193e+07
-2.09057e+07
-1.97229e+07
-1.95372e+07
-1.94071e+07
-1.85392e+07
-1.67534e+07
-1.57352e+07
-1.57579e+07
-1.56535e+07
-1.52736e+07
-1.47817e+07
-1.40637e+07
-1.34116e+07
-1.30856e+07
-1.18818e+07
-1.09969e+07
-1.06504e+07
-9.91221e+06
-8.85954e+06
-7.49603e+06
-6.64934e+06
-6.20725e+06
-5.50654e+06
-5.46076e+06
-5.13515e+06
-3.87947e+06
-3.4631e+06
-3.75466e+06
-3.52583e+06
-3.19398e+06
-2.7189e+06
-2.5985e+06
-2.30318e+06
-1.66447e+06
-1.26308e+06
-922132
-331568
-192086
-375766
-343199
-283898
-301582
-278552
-278158
-162739
-44449.4
28231.9
43252.3
37539.8
24175.1
19360.2
21527.7
24880.7
25858.9
26194.1
27553.4
28129.6
27487.8
26335.2
25625.1
25061.7
23915
22104.8
20274.8
18888.6
17758.7
16720.6
14951
11816.1
9196.94
7434.62
2322.29
3930.18
7907.8
6986.82
3551.3
2688.16
2552.09
3253.33
4206.13
1476.04
-2523.6
-3161.08
-3177.54
-3402.81
-3265.48
-2680.51
-2250.84
-1682.74
-790.628
-227.949
-737.137
-269.318
848.143
1052.63
653.801
-2.38013e+07
-2.31099e+07
-2.31371e+07
-2.21985e+07
-2.10496e+07
-1.98466e+07
-1.95307e+07
-1.9341e+07
-1.83722e+07
-1.67917e+07
-1.57789e+07
-1.58205e+07
-1.56492e+07
-1.52047e+07
-1.48532e+07
-1.41807e+07
-1.34201e+07
-1.29779e+07
-1.14447e+07
-1.0837e+07
-1.05375e+07
-9.89831e+06
-8.78628e+06
-7.27161e+06
-6.61375e+06
-6.10817e+06
-5.45287e+06
-5.41527e+06
-5.16609e+06
-3.93151e+06
-3.43379e+06
-3.69573e+06
-3.5216e+06
-3.18921e+06
-2.74302e+06
-2.57379e+06
-2.39317e+06
-1.65941e+06
-1.32918e+06
-932398
-397450
-194669
-384438
-349697
-292410
-313061
-285219
-286569
-172735
-43501.3
20080.9
34175.5
33075.7
21208.3
16826.7
19879.2
23758.3
25285.4
26100.2
27625.1
28431
27799.8
26526.5
25628.4
24863.9
23738
22074.2
20352.8
18988.5
17770.8
16729.1
15200.8
12142
8880.93
6682.86
1308.28
2729.75
6887.67
6914.38
3859.04
2772.28
3037.9
4021.86
4921.07
1703.73
-2440
-3160.85
-3280.59
-3620.75
-3543.44
-2889.3
-2398.3
-1836.29
-969.004
-453.134
-972.994
-504.169
689.559
1128.32
806.419
-2.37039e+07
-2.31219e+07
-2.31857e+07
-2.21067e+07
-2.11899e+07
-2.00051e+07
-1.95252e+07
-1.93083e+07
-1.82566e+07
-1.6841e+07
-1.58881e+07
-1.5849e+07
-1.56026e+07
-1.50982e+07
-1.48463e+07
-1.41958e+07
-1.34751e+07
-1.28695e+07
-1.12599e+07
-1.08133e+07
-1.05598e+07
-9.85178e+06
-8.82024e+06
-7.21827e+06
-6.60616e+06
-5.96457e+06
-5.36959e+06
-5.37013e+06
-5.20531e+06
-4.06154e+06
-3.41127e+06
-3.63065e+06
-3.54097e+06
-3.25045e+06
-2.87949e+06
-2.56622e+06
-2.44285e+06
-1.69303e+06
-1.42796e+06
-945487
-457212
-205991
-380545
-352416
-309745
-325064
-290474
-279635
-191393
-40865.5
7762.06
21807.1
27204.2
18081.1
14337.7
18252.3
22541.3
24751.6
25988.1
27755.3
28777.9
28116.1
26757.4
25647.3
24734.3
23559.5
22038.6
20367.8
19040.8
17781.4
16761.2
15381.1
12485.4
8712.18
5931.63
403.967
1585.28
5891.57
6809.92
4202.78
2891.89
3641.95
4894.23
5593.27
1957.16
-2326.56
-3105.69
-3319.43
-3794.9
-3788.26
-3106.53
-2516.73
-2000.72
-1228.79
-704.837
-1204.08
-745.099
528.206
1191.02
903.951
-2.36295e+07
-2.31415e+07
-2.32154e+07
-2.20111e+07
-2.13357e+07
-2.01775e+07
-1.95416e+07
-1.92908e+07
-1.81699e+07
-1.68856e+07
-1.60607e+07
-1.58784e+07
-1.56131e+07
-1.50189e+07
-1.47853e+07
-1.41308e+07
-1.35224e+07
-1.28124e+07
-1.13147e+07
-1.08812e+07
-1.05939e+07
-9.68899e+06
-9.01834e+06
-7.44799e+06
-6.63759e+06
-5.84768e+06
-5.328e+06
-5.34441e+06
-5.23952e+06
-4.19946e+06
-3.4323e+06
-3.61339e+06
-3.58148e+06
-3.31291e+06
-3.02743e+06
-2.58989e+06
-2.44759e+06
-1.76001e+06
-1.54628e+06
-949025
-443491
-208754
-366248
-359124
-327256
-333349
-298652
-265781
-202513
-46511.1
-8407.2
7992.47
20681.4
14844.5
11911.5
16662.6
21356
24171.7
25975.6
27951.8
29171.6
28450.2
26958.3
25736.3
24617.1
23412.4
21949.4
20371.4
19094.6
17796.3
16719.9
15558.4
12834.2
8592.54
5301.83
-254.151
455.33
4869.07
6668.7
4585.82
3110.27
4342.25
5797.96
6225.01
2214.96
-2136.75
-2985.25
-3331.73
-3909.5
-4017.78
-3327.18
-2641.54
-2228.57
-1496.23
-959.135
-1397.25
-975.727
354.872
1239.92
1007.14
-2.3573e+07
-2.31595e+07
-2.32225e+07
-2.19585e+07
-2.13682e+07
-2.03441e+07
-1.95923e+07
-1.92371e+07
-1.80888e+07
-1.68159e+07
-1.61545e+07
-1.58461e+07
-1.55517e+07
-1.49403e+07
-1.46184e+07
-1.39911e+07
-1.35987e+07
-1.28619e+07
-1.14122e+07
-1.09526e+07
-1.04874e+07
-9.61445e+06
-9.09949e+06
-7.75375e+06
-6.65032e+06
-5.84794e+06
-5.33396e+06
-5.23991e+06
-5.24826e+06
-4.38651e+06
-3.61908e+06
-3.62498e+06
-3.65557e+06
-3.37285e+06
-3.06423e+06
-2.64552e+06
-2.44446e+06
-1.82658e+06
-1.61747e+06
-1.00869e+06
-344859
-199312
-367177
-369113
-338563
-332129
-305085
-257933
-194495
-52770.5
-25007.1
-4989.47
14453.6
11495.3
9541.09
14973.5
20215
23627.9
26015.8
28208.7
29562.9
28812.4
27183.1
25853.3
24551.7
23256.6
21847.9
20378.7
19158.6
17783.4
16632.8
15658.5
13190
8609.53
4718.46
-693.417
-501.171
3944.15
6593.05
5028.76
3498.19
5119.61
6636.9
6761.12
2480.77
-1847.51
-2865.4
-3337.86
-4014.61
-4232.91
-3574.35
-2814.33
-2455.97
-1727.34
-1219.37
-1564.75
-1166.64
199.589
1269.18
1080.03
-2.35206e+07
-2.3171e+07
-2.3215e+07
-2.19531e+07
-2.12571e+07
-2.0503e+07
-1.96507e+07
-1.91372e+07
-1.80121e+07
-1.66585e+07
-1.60648e+07
-1.56701e+07
-1.53632e+07
-1.48864e+07
-1.4388e+07
-1.38883e+07
-1.36906e+07
-1.2801e+07
-1.13763e+07
-1.09504e+07
-1.02943e+07
-9.60495e+06
-9.09623e+06
-8.04217e+06
-6.60593e+06
-5.79423e+06
-5.24813e+06
-5.03159e+06
-5.21379e+06
-4.51133e+06
-3.80567e+06
-3.64892e+06
-3.70584e+06
-3.42952e+06
-3.08316e+06
-2.71901e+06
-2.48313e+06
-1.89136e+06
-1.62531e+06
-1.15914e+06
-304074
-181416
-383550
-379623
-348401
-331209
-308848
-254962
-184464
-55656.5
-35781.7
-15733.9
9221.75
8530.71
7246.76
13239.7
19080.2
23053.2
26072.3
28458.3
29944.9
29162.8
27402.5
25991.2
24472.6
23092.2
21782.9
20370.9
19216.9
17818.9
16572.9
15712
13542
8769.03
4280.8
-1106.98
-1435.47
3215.45
6506.2
5499.53
3960.29
5901.63
7404.86
7212.69
2775.62
-1540.21
-2758.99
-3305.25
-4085.06
-4411.28
-3847.76
-2961.48
-2614.18
-1987.76
-1470.46
-1707.33
-1320.9
63.2569
1302.69
1119.9
-2.34792e+07
-2.31766e+07
-2.31782e+07
-2.19486e+07
-2.1136e+07
-2.06811e+07
-1.97539e+07
-1.91079e+07
-1.78746e+07
-1.64794e+07
-1.5966e+07
-1.55488e+07
-1.51957e+07
-1.48615e+07
-1.42788e+07
-1.39172e+07
-1.37419e+07
-1.27067e+07
-1.13128e+07
-1.09108e+07
-1.02085e+07
-9.5782e+06
-9.08904e+06
-8.15591e+06
-6.53141e+06
-5.77498e+06
-5.20642e+06
-4.91314e+06
-5.22313e+06
-4.68203e+06
-3.89282e+06
-3.6862e+06
-3.70708e+06
-3.45517e+06
-3.11379e+06
-2.78031e+06
-2.5088e+06
-2.02028e+06
-1.59322e+06
-1.20729e+06
-372413
-169862
-396106
-396592
-357133
-336952
-320834
-255241
-171792
-54787.7
-41098.8
-23231.2
4196.63
6198.32
4932.59
11641.3
17969.3
22509.8
26138.7
28717.6
30188.6
29425.9
27652.1
26083.8
24414.8
22959.7
21688.2
20369.6
19282.9
17862.5
16512.1
15684.3
13912.1
9062.72
4073.47
-1356.33
-2302.72
2595.56
6437.24
5971.91
4493.85
6550.64
8076.28
7640.56
3079.53
-1237.71
-2647.38
-3289.05
-4123.72
-4586.76
-4091.31
-3113.48
-2765
-2241.95
-1703.53
-1801.4
-1466.84
-34.9049
1338.87
1144.06
-2.34691e+07
-2.31811e+07
-2.31109e+07
-2.19296e+07
-2.1077e+07
-2.0761e+07
-1.98777e+07
-1.90904e+07
-1.75958e+07
-1.6412e+07
-1.59305e+07
-1.54745e+07
-1.51258e+07
-1.48442e+07
-1.43306e+07
-1.39786e+07
-1.36821e+07
-1.25923e+07
-1.12723e+07
-1.0893e+07
-1.02123e+07
-9.49616e+06
-9.15262e+06
-8.17871e+06
-6.53839e+06
-5.85428e+06
-5.23312e+06
-4.92506e+06
-5.20244e+06
-4.84929e+06
-3.93252e+06
-3.70223e+06
-3.68819e+06
-3.42423e+06
-3.13148e+06
-2.83443e+06
-2.49885e+06
-2.10896e+06
-1.54459e+06
-1.12874e+06
-446821
-182821
-401899
-422991
-368848
-349771
-336426
-255137
-156201
-50542.3
-42297.4
-27948
-407.846
4391.51
2559.84
10154.8
16977.3
22049.1
26198.8
28899
30274.8
29626.6
27856.2
26175.8
24375.7
22803.1
21572.3
20352.6
19360.9
17884.2
16498.6
15648.6
14235.1
9527.74
4179.75
-1385.79
-3041.58
2076.07
6436.84
6502.72
5147.74
7234.01
8657.93
7902.1
3323.69
-849.322
-2492.19
-3303.33
-4135.38
-4714.97
-4310.03
-3259.07
-2905.6
-2477.83
-1938.67
-1888.71
-1564.53
-117.102
1387.66
1136.2
-2.34788e+07
-2.31942e+07
-2.30642e+07
-2.19603e+07
-2.11e+07
-2.06649e+07
-1.9983e+07
-1.89706e+07
-1.7289e+07
-1.63476e+07
-1.5824e+07
-1.54366e+07
-1.50756e+07
-1.48613e+07
-1.44642e+07
-1.40283e+07
-1.35552e+07
-1.25362e+07
-1.12786e+07
-1.08246e+07
-1.02032e+07
-9.48211e+06
-9.20022e+06
-8.03376e+06
-6.55305e+06
-6.04451e+06
-5.29865e+06
-4.97547e+06
-5.17255e+06
-4.93474e+06
-4.01981e+06
-3.67318e+06
-3.63174e+06
-3.38087e+06
-3.13907e+06
-2.87498e+06
-2.46262e+06
-2.13234e+06
-1.52314e+06
-1.0051e+06
-503173
-241353
-402812
-445180
-384780
-363870
-353193
-254456
-137126
-45283.2
-40621.1
-30070.4
-4201.97
3267.05
427.594
8805.99
16096.8
21696.3
26231.8
28898.2
30319.3
29773.6
28018.7
26241.1
24313.2
22667.9
21450.5
20381.2
19444.2
17958.4
16488.4
15631.8
14548.3
10120.9
4522.58
-1049.59
-3490.96
1750.08
6467.74
7042.13
5873.81
7780.01
9190.85
8131.23
3484.85
-480.817
-2356.82
-3339.04
-4160.27
-4824.26
-4557.47
-3399.26
-3031.3
-2671.85
-2144.57
-1993.26
-1618.3
-167.535
1430.67
1111.4
-2.35043e+07
-2.32214e+07
-2.30557e+07
-2.20781e+07
-2.11609e+07
-2.05381e+07
-2.00978e+07
-1.88651e+07
-1.70598e+07
-1.61824e+07
-1.57458e+07
-1.5473e+07
-1.50414e+07
-1.48806e+07
-1.46354e+07
-1.41044e+07
-1.33951e+07
-1.24596e+07
-1.12464e+07
-1.07239e+07
-1.0176e+07
-9.47248e+06
-9.17588e+06
-7.93158e+06
-6.55249e+06
-6.21026e+06
-5.36054e+06
-4.96646e+06
-5.17594e+06
-4.93317e+06
-4.14029e+06
-3.67164e+06
-3.54858e+06
-3.33899e+06
-3.13246e+06
-2.89594e+06
-2.43544e+06
-2.1206e+06
-1.59102e+06
-977445
-550309
-314876
-405189
-456946
-396779
-375074
-366270
-253836
-116823
-39480.6
-37654.1
-29865.6
-7606.05
2100.04
-1164.98
7559.63
15292.5
21462.2
26113.6
28835.4
30297.7
29870.5
28137.5
26287
24267.8
22530.3
21311.7
20390.3
19549.2
18022.2
16473.9
15633.3
14838.2
10809.8
5141.89
-285.527
-3516.76
1684.98
6526.29
7483.04
6642.51
8301.4
9661.66
8364.8
3687.94
-168.042
-2237.52
-3361.82
-4162.41
-4905.62
-4748.64
-3478.54
-3172.34
-2834.58
-2258.81
-2039
-1649.1
-212.019
1460.96
1099.6
-2.35481e+07
-2.32615e+07
-2.30754e+07
-2.22589e+07
-2.12089e+07
-2.04487e+07
-2.01065e+07
-1.87672e+07
-1.68973e+07
-1.60204e+07
-1.57415e+07
-1.54707e+07
-1.49935e+07
-1.49375e+07
-1.4707e+07
-1.40552e+07
-1.32569e+07
-1.23926e+07
-1.12665e+07
-1.06298e+07
-1.01107e+07
-9.39895e+06