/*--------------------------------*- C++ -*----------------------------------*\
| =========                 |                                                 |
| \\      /  F ield         | foam-extend: Open Source CFD                    |
|  \\    /   O peration     | Version:     5.0                                |
|   \\  /    A nd           | Web:         http://www.foam-extend.org         |
|    \\/     M anipulation  |                                                 |
\*---------------------------------------------------------------------------*/
FoamFile
{
    version     2.0;
    format      ascii;
    class       volScalarField;
    location    "0.1";
    object      pd;
}
// * * * * * * * * * * * * * * * * * * * * * * * * * * * * * * * * * * * * * //

dimensions      [1 -1 -2 0 0 0 0];

internalField   nonuniform List<scalar> 
4000
(
-2.54847e+07
-2.31766e+07
-2.17203e+07
-2.10813e+07
-2.0622e+07
-2.01947e+07
-1.97511e+07
-1.96727e+07
-1.95989e+07
-1.85751e+07
-1.7028e+07
-1.59624e+07
-1.52683e+07
-1.50082e+07
-1.45003e+07
-1.38058e+07
-1.35568e+07
-1.33143e+07
-1.25798e+07
-1.16667e+07
-1.08507e+07
-9.98913e+06
-8.72398e+06
-7.67092e+06
-7.14826e+06
-6.87465e+06
-6.58719e+06
-5.74179e+06
-4.56708e+06
-3.9969e+06
-3.82713e+06
-3.74811e+06
-3.55888e+06
-3.30562e+06
-2.98775e+06
-2.6492e+06
-1.82308e+06
-929817
-642216
-617025
-505353
-367225
-307487
-362751
-366872
-315947
-225502
-118190
-28350.6
32433.4
63603.8
73180.2
68951.7
60361.3
51160.1
43189.7
37209.4
33764.9
31162.8
29202.5
28229.4
28016.1
28217.5
28202.7
26860.3
23915.2
21524.2
19849
18182
16619.2
14661.8
12529
11264.3
11294.2
11670.8
11683.6
11106.1
9543.94
7117.19
4823.99
2993
1302.45
180.02
-83.8608
220.016
147.664
-655.182
-950.678
-637.741
-247.549
-70.5323
-393.179
-535.474
-28.83
603.999
898.842
981.885
727.216
-303.388
-379.77
-2.53989e+07
-2.30678e+07
-2.17599e+07
-2.11116e+07
-2.06224e+07
-2.01599e+07
-1.97142e+07
-1.96038e+07
-1.96408e+07
-1.86897e+07
-1.69888e+07
-1.58264e+07
-1.52305e+07
-1.50632e+07
-1.4395e+07
-1.36085e+07
-1.33816e+07
-1.31553e+07
-1.25754e+07
-1.17085e+07
-1.07973e+07
-9.94652e+06
-8.67819e+06
-7.58205e+06
-7.09563e+06
-6.94849e+06
-6.59879e+06
-5.67368e+06
-4.47438e+06
-3.99384e+06
-3.8697e+06
-3.804e+06
-3.63487e+06
-3.44225e+06
-3.08802e+06
-2.6798e+06
-1.79518e+06
-952535
-645048
-616871
-493986
-352435
-304990
-363131
-375837
-319267
-225281
-116556
-25235.4
34540.3
65119.3
73736.9
69048.1
60272.5
51099.3
43144.9
37248.3
33760.5
31194.9
29258.6
28205.5
27955.3
28165.4
28162.5
26768.9
23777.8
21436.9
19770.1
18139.6
16599.9
14615.5
12481.8
11225.9
11243.2
11594.7
11620
11072.5
9541.66
7117.77
4821.57
3010.57
1322.7
137.095
-114.461
178.099
117.692
-644.919
-898.087
-585.389
-222.661
-34.0913
-352.164
-509.419
-6.43874
632.73
923.189
993.688
785.259
-274.434
-401.689
-2.5294e+07
-2.29296e+07
-2.1824e+07
-2.11759e+07
-2.06556e+07
-2.0167e+07
-1.97052e+07
-1.95554e+07
-1.96265e+07
-1.88692e+07
-1.69285e+07
-1.54531e+07
-1.50241e+07
-1.51211e+07
-1.43813e+07
-1.35237e+07
-1.32337e+07
-1.30231e+07
-1.25996e+07
-1.17665e+07
-1.08339e+07
-9.90801e+06
-8.60844e+06
-7.51573e+06
-7.16477e+06
-7.08706e+06
-6.60458e+06
-5.71538e+06
-4.40355e+06
-3.98214e+06
-3.92139e+06
-3.83164e+06
-3.675e+06
-3.47316e+06
-3.15415e+06
-2.74885e+06
-1.83697e+06
-971607
-646896
-611759
-499503
-362741
-311903
-386400
-423722
-369802
-258236
-131637
-28693.2
35188.6
66772.9
74870.7
69265.9
60217.7
50936.9
42998.6
37175.3
33657.1
31115.6
29292.5
28185.3
27902.1
28107.7
28131.1
26734.1
23660.2
21346.6
19673.4
18030.3
16556.4
14571.3
12400.9
11171.5
11200.9
11527.5
11587.9
11069.7
9550.27
7099.85
4777.09
3008.42
1241.33
71.2049
-128.974
151.559
103.173
-613.203
-882.03
-561.865
-241.849
-27.4352
-290.577
-488.196
-2.70145
650.688
933.087
1009.04
843.524
-250.847
-439.229
-2.52026e+07
-2.28088e+07
-2.19001e+07
-2.12648e+07
-2.06723e+07
-2.02122e+07
-1.97208e+07
-1.94887e+07
-1.95074e+07
-1.89141e+07
-1.68187e+07
-1.52937e+07
-1.49424e+07
-1.5283e+07
-1.44488e+07
-1.35139e+07
-1.32129e+07
-1.29857e+07
-1.25985e+07
-1.18434e+07
-1.0825e+07
-9.9309e+06
-8.70504e+06
-7.53731e+06
-7.16911e+06
-7.07193e+06
-6.60641e+06
-5.76456e+06
-4.35358e+06
-3.95634e+06
-3.95858e+06
-3.85758e+06
-3.70182e+06
-3.39425e+06
-3.20114e+06
-2.77803e+06
-1.87781e+06
-1.02186e+06
-682604
-622801
-511669
-386056
-323058
-388476
-432509
-401779
-305938
-164990
-41397
32545.7
67721.7
75775.2
69366.1
59919.4
50548.6
42558.3
36966
33485.1
30998
29322
28165.5
27876.1
28024.8
28060.9
26710.6
23606.7
21288.9
19565.4
17978.4
16584.8
14508.7
12311
11099
11159.9
11485.8
11551.2
11077.5
9502.03
7082.43
4738.03
2923.07
1198.84
36.9643
-123.64
144.542
77.5718
-598.801
-795.354
-529.503
-225.24
-53.5137
-246.29
-440.916
16.1885
649.61
925.309
1015.97
920.338
-240.202
-500.653
-2.51314e+07
-2.2699e+07
-2.19806e+07
-2.1344e+07
-2.06696e+07
-2.02558e+07
-1.97488e+07
-1.94426e+07
-1.94011e+07
-1.87861e+07
-1.66932e+07
-1.53592e+07
-1.50638e+07
-1.54724e+07
-1.43523e+07
-1.34989e+07
-1.32413e+07
-1.29805e+07
-1.25654e+07
-1.18065e+07
-1.08065e+07
-1.007e+07
-8.89203e+06
-7.63546e+06
-7.26063e+06
-7.02586e+06
-6.53885e+06
-5.62609e+06
-4.37528e+06
-3.92437e+06
-3.91865e+06
-3.8471e+06
-3.7342e+06
-3.36887e+06
-3.22375e+06
-2.80627e+06
-1.93586e+06
-1.13203e+06
-745005
-644083
-519312
-409950
-337525
-377692
-424535
-399987
-323754
-198002
-63054.9
25059.3
66939.5
76029.4
68905.8
59265.7
49867.1
41926.9
36601.7
33193.9
30839.6
29268.5
28051.1
27830.3
27933.2
27961.5
26641.2
23686.8
21272.3
19448.3
18062.2
16702.8
14437.4
12205.4
11031.5
11105.2
11405.3
11493.6
11062.9
9534.38
7041.95
4693.87
2828.12
1132.95
-3.50494
-135.106
183.462
81.6524
-602.137
-782.259
-450.328
-293.633
-126.847
-249.122
-408.903
52.2504
652.67
901.813
1003.02
995.849
-240.401
-585.122
-2.50757e+07
-2.2602e+07
-2.2062e+07
-2.13912e+07
-2.06545e+07
-2.02416e+07
-1.97876e+07
-1.94161e+07
-1.93128e+07
-1.86149e+07
-1.66141e+07
-1.54479e+07
-1.52738e+07
-1.55372e+07
-1.42125e+07
-1.34509e+07
-1.3199e+07
-1.29879e+07
-1.25478e+07
-1.17252e+07
-1.07542e+07
-1.02461e+07
-9.11504e+06
-7.75646e+06
-7.35877e+06
-6.89483e+06
-6.27612e+06
-5.33103e+06
-4.45966e+06
-3.89185e+06
-3.80747e+06
-3.76126e+06
-3.71352e+06
-3.42378e+06
-3.21627e+06
-2.83517e+06
-2.01097e+06
-1.23971e+06
-796978
-653347
-513867
-432350
-357695
-363869
-401445
-385273
-325267
-216918
-84396.9
13310.7
63511.3
74956.5
67821.1
58026.9
48853.7
41124
36073
32755.1
30575.3
29158.6
27919.9
27767.6
27858.8
27842.9
26593.7
23785.4
21377.4
19491.4
18173.9
16760.9
14381.6
12105.4
10958.4
11046.2
11283.2
11408.3
11051.6
9562.77
7034.22
4628.38
2720.69
1074.38
-48.4406
-104.159
245.571
82.1411
-639.788
-744.309
-453.717
-414.583
-208.595
-310.146
-384.215
84.1374
641.335
869.604
982.247
1057.93
-253.286
-674.564
-2.50293e+07
-2.2525e+07
-2.21424e+07
-2.14175e+07
-2.0632e+07
-2.01569e+07
-1.98061e+07
-1.93999e+07
-1.92679e+07
-1.84396e+07
-1.65649e+07
-1.55043e+07
-1.53837e+07
-1.54975e+07
-1.41611e+07
-1.33821e+07
-1.31677e+07
-1.29653e+07
-1.25387e+07
-1.1684e+07
-1.07075e+07
-1.03877e+07
-9.28072e+06
-7.86803e+06
-7.32088e+06
-6.74499e+06
-6.15508e+06
-5.11056e+06
-4.41016e+06
-3.83318e+06
-3.72463e+06
-3.79453e+06
-3.67434e+06
-3.43859e+06
-3.19086e+06
-2.84207e+06
-2.1013e+06
-1.31968e+06
-809970
-629389
-487097
-438927
-373925
-356626
-384217
-363801
-314085
-223237
-101122
1193.58
58193.6
72174.4
65916.9
56196.3
47492.6
40210
35428.6
32246.8
30236.4
28889.3
27704.8
27629.3
27690.2
27660.9
26522.3
23970.5
21522.1
19509.7
18252.6
16782.7
14448.8
12090.2
10874.2
10992.4
11159.4
11292.3
11046.1
9620.67
7002.74
4559.72
2640.45
1016.25
-57.4872
-54.3656
337.946
53.4145
-695.066
-762.234
-575.572
-510.507
-315.885
-364.57
-354.928
107.446
606.426
830.785
960.081
1100.96
-259.134
-748.243
-2.499e+07
-2.24791e+07
-2.22165e+07
-2.14451e+07
-2.06112e+07
-2.00513e+07
-1.97933e+07
-1.9395e+07
-1.92384e+07
-1.82719e+07
-1.65714e+07
-1.55528e+07
-1.5407e+07
-1.53954e+07
-1.41488e+07
-1.33216e+07
-1.31511e+07
-1.29781e+07
-1.26224e+07
-1.17063e+07
-1.07559e+07
-1.04833e+07
-9.33597e+06
-7.86531e+06
-7.13364e+06
-6.65338e+06
-6.13483e+06
-4.93889e+06
-4.43063e+06
-3.83917e+06
-3.68531e+06
-3.78653e+06
-3.65453e+06
-3.41891e+06
-3.14797e+06
-2.8427e+06
-2.17607e+06
-1.39413e+06
-830604
-581232
-455518
-431262
-382788
-344941
-369218
-345782
-303141
-220733
-109124
-9337.47
51082.2
68582.7
63224.9
53833.9
45931.7
39284.7
34777.4
31681.7
29908.3
28591.6
27478.4
27438.2
27453
27461.6
26457.5
24148.9
21672
19520.2
18249.1
16895.6
14579.2
12115.5
10858.9
10952.1
11004
11133.3
11082.8
9700.89
6996.41
4448.26
2571.33
993.228
-60.7121
30.8237
415.332
-7.51432
-832.157
-889.599
-664.563
-622.798
-471.333
-471.59
-388.981
99.8835
565.825
783.858
942.194
1157.73
-247.268
-808.427
-2.49382e+07
-2.24873e+07
-2.22904e+07
-2.148e+07
-2.05868e+07
-1.99664e+07
-1.97579e+07
-1.94343e+07
-1.92118e+07
-1.8102e+07
-1.6527e+07
-1.55707e+07
-1.54071e+07
-1.53292e+07
-1.41589e+07
-1.33094e+07
-1.31164e+07
-1.29915e+07
-1.27187e+07
-1.17535e+07
-1.09007e+07
-1.05972e+07
-9.33025e+06
-7.84419e+06
-6.84355e+06
-6.58362e+06
-5.99921e+06
-4.88099e+06
-4.57623e+06
-3.84712e+06
-3.61799e+06
-3.74682e+06
-3.63593e+06
-3.39468e+06
-3.11889e+06
-2.84348e+06
-2.20943e+06
-1.44917e+06
-876903
-575329
-453667
-421974
-382986
-329861
-354671
-330425
-292253
-219235
-113173
-14643.3
45072.1
64587.6
60282.1
51104.2
44075.8
38294.4
34111
31120.7
29548.6
28362.1
27295.6
27241.8
27171.9
27230
26373.6
24334.7
21811.6
19515.1
18238.9
16980
14749.2
12252.2
10916.4
10867.7
10801.5
10952.9
11101.6
9832.12
6997.34
4372.23
2490.14
1002.26
-21.7337
144.151
508.02
-126.244
-972.974
-1037.16
-783.336
-758.145
-642.119
-585.225
-418.201
97.7092
528.247
725.767
930.357
1229.03
-234.281
-847.774
-2.48711e+07
-2.25294e+07
-2.23786e+07
-2.15236e+07
-2.05511e+07
-1.99204e+07
-1.97144e+07
-1.95446e+07
-1.91811e+07
-1.7887e+07
-1.63587e+07
-1.55609e+07
-1.54377e+07
-1.53414e+07
-1.41492e+07
-1.32966e+07
-1.30809e+07
-1.29296e+07
-1.27104e+07
-1.18205e+07
-1.10201e+07
-1.06373e+07
-9.37024e+06
-7.81173e+06
-6.54433e+06
-6.53482e+06
-5.84752e+06
-4.92939e+06
-4.65789e+06
-3.82577e+06
-3.56264e+06
-3.72086e+06
-3.60196e+06
-3.34332e+06
-3.1039e+06
-2.8388e+06
-2.20812e+06
-1.47408e+06
-903686
-591353
-469234
-416306
-374191
-315773
-339455
-318418
-283667
-215766
-117063
-18895.5
42365.9
61456.4
57360.6
48425.1
42018.7
37295.1
33464.3
30544.5
29127.4
28125.8
27224.5
27048
26898.6
26986.9
26273.6
24445.6
21910.5
19519.8
18200
17033.7
14979.4
12433.2
10962.8
10791.9
10538
10683.7
11131.7
9956.16
7045.84
4286
2414.93
923.85
20.8453
306.188
567.077
-239.517
-1198.36
-1163.36
-951.252
-878.651
-754.235
-723.431
-496.507
67.5449
498.994
658.938
947.732
1313.12
-170.028
-845.622
-2.48085e+07
-2.25832e+07
-2.24795e+07
-2.1575e+07
-2.0519e+07
-1.9907e+07
-1.96647e+07
-1.96677e+07
-1.91618e+07
-1.76135e+07
-1.61121e+07
-1.55424e+07
-1.55041e+07
-1.53853e+07
-1.41355e+07
-1.32569e+07
-1.30368e+07
-1.28289e+07
-1.26656e+07
-1.18177e+07
-1.10532e+07
-1.058e+07
-9.45707e+06
-7.90379e+06
-6.51918e+06
-6.47555e+06
-5.76341e+06
-5.04081e+06
-4.67954e+06
-3.81459e+06
-3.49987e+06
-3.70121e+06
-3.60226e+06
-3.30269e+06
-3.08996e+06
-2.81809e+06
-2.19349e+06
-1.50436e+06
-926876
-609492
-469710
-408788
-360078
-305163
-325650
-308872
-275864
-211760
-119025
-22020
40262.1
59916.5
55085.6
45688.7
40051
36199.3
32799.2
30013.2
28721.2
27924.6
27174.2
26931.8
26678.7
26728
26151.5
24520.7
21931.3
19582.5
18242.6
17135.7
15195.1
12621.2
11016.6
10680.4
10290.4
10351.3
11115.6
10084.5
7075.44
4225.58
2345.25
884.872
132.712
472.552
646.73
-464.547
-1440.65
-1354.76
-1139.9
-1020.29
-909.512
-873.842
-574.35
30.5617
462.406
582.094
964.471
1381.75
-74.4767
-793.858
-2.47375e+07
-2.26454e+07
-2.25809e+07
-2.16373e+07
-2.04861e+07
-1.98935e+07
-1.96305e+07
-1.97561e+07
-1.91733e+07
-1.73179e+07
-1.58594e+07
-1.55237e+07
-1.55927e+07
-1.54485e+07
-1.41129e+07
-1.3216e+07
-1.30159e+07
-1.28075e+07
-1.26788e+07
-1.17045e+07
-1.10135e+07
-1.05668e+07
-9.69329e+06
-8.05292e+06
-6.57867e+06
-6.44996e+06
-5.81328e+06
-5.14004e+06
-4.73459e+06
-3.82245e+06
-3.4551e+06
-3.69459e+06
-3.61312e+06
-3.28956e+06
-3.06891e+06
-2.7784e+06
-2.18771e+06
-1.54239e+06
-960049
-635379
-462515
-397717
-345009
-294405
-313264
-299980
-268079
-209572
-120133
-23591.5
39850.3
58994.6
53476.3
43316.6
37820.8
34930.1
32232.3
29609.1
28273.6
27718.5
27162
26844.8
26503.5
26520.9
26088.5
24543.7
21961.9
19628.1
18286.7
17240.2
15375.5
12782.4
11040.7
10606
9979.44
9923.18
11037.9
10182
7088.04
4146.3
2317.59
934.308
257.862
653.128
707.088
-646.446
-1718.93
-1600.15
-1359.66
-1198.54
-1077.4
-1023.44
-624.669
-26.623
428.921
496.767
950.98
1429.55
25.4198
-694.869
-2.4654e+07
-2.27194e+07
-2.26819e+07
-2.17077e+07
-2.0453e+07
-1.98013e+07
-1.96201e+07
-1.97975e+07
-1.9195e+07
-1.70463e+07
-1.56348e+07
-1.55155e+07
-1.56886e+07
-1.55188e+07
-1.41006e+07
-1.31971e+07
-1.30373e+07
-1.28575e+07
-1.26671e+07
-1.16673e+07
-1.10112e+07
-1.0519e+07
-9.67975e+06
-8.15136e+06
-6.661e+06
-6.44447e+06
-5.84898e+06
-5.2379e+06
-4.83606e+06
-3.84877e+06
-3.44001e+06
-3.69379e+06
-3.61528e+06
-3.27854e+06
-3.05139e+06
-2.73397e+06
-2.19025e+06
-1.56941e+06
-988346
-655923
-445714
-380528
-329755
-283662
-301264
-291160
-261355
-209707
-122932
-25381.5
39915.1
59064.7
52074.6
41238.6
35593.2
33449.7
31563.1
29115.6
27837.2
27535.2
27164.6
26793.2
26360.1
26348.8
26005.5
24528.4
21979.8
19743.7
18393
17311
15571.9
13013.9
11038
10524
9675.72
9366.08
10756.8
10352.3
7005.28
4051.47
2352.24
1007.67
410.282
825.865
805.744
-944.825
-1977.4
-1823.17
-1615.21
-1397.68
-1270.49
-1180.1
-715.704
-66.0964
391.608
405.097
898.966
1468.8
176.721
-565.332
-2.4562e+07
-2.28015e+07
-2.27777e+07
-2.17794e+07
-2.0425e+07
-1.96678e+07
-1.96193e+07
-1.97028e+07
-1.91717e+07
-1.68374e+07
-1.54751e+07
-1.55247e+07
-1.57513e+07
-1.55562e+07
-1.41362e+07
-1.3281e+07
-1.31136e+07
-1.29117e+07
-1.25791e+07
-1.1651e+07
-1.09633e+07
-1.04316e+07
-9.58962e+06
-8.20922e+06
-6.75207e+06
-6.39879e+06
-5.85077e+06
-5.35773e+06
-4.93805e+06
-3.83152e+06
-3.43479e+06
-3.6921e+06
-3.61162e+06
-3.2709e+06
-3.03236e+06
-2.69105e+06
-2.19317e+06
-1.59229e+06
-1.02325e+06
-673654
-431784
-360654
-312452
-270656
-290466
-283885
-257494
-211918
-127117
-27983.9
39757.7
58647.7
50599.8
39239.2
33624.2
31915.4
30697.8
28502.9
27421.1
27403.4
27216.3
26786.2
26230.5
26198.4
25933.2
24547.1
22029.1
19806.1
18444.7
17427.6
15807.9
13230.4
11060.3
10463.5
9366.38
8699.65
10242.8
10430.2
6934.38
3908.77
2391.19
1141.92
581.831
1040.17
814.07
-1415.35
-2215.12
-1995.62
-1856.04
-1628.53
-1462.52
-1325.48
-816.185
-133.425
345.652
283.35
814.375
1481.52
354.834
-403.839
-2.44631e+07
-2.2887e+07
-2.28609e+07
-2.18467e+07
-2.04219e+07
-1.95724e+07
-1.95968e+07
-1.96197e+07
-1.91399e+07
-1.67056e+07
-1.54595e+07
-1.55414e+07
-1.57357e+07
-1.54149e+07
-1.41805e+07
-1.33855e+07
-1.31983e+07
-1.29892e+07
-1.24675e+07
-1.15864e+07
-1.09109e+07
-1.03313e+07
-9.47621e+06
-8.21469e+06
-6.84231e+06
-6.32865e+06
-5.80209e+06
-5.45043e+06
-5.01619e+06
-3.80598e+06
-3.40037e+06
-3.69053e+06
-3.61736e+06
-3.27278e+06
-3.00157e+06
-2.65324e+06
-2.1959e+06
-1.6149e+06
-1.06273e+06
-689152
-408723
-347650
-305463
-257009
-280933
-281835
-256908
-217478
-131434
-30789.1
38887.9
57834.9
48940.8
36977.8
31433
30328
29780.6
27983.4
27058.8
27305.1
27283.3
26808.4
26141.9
26027.1
25868.8
24557.3
22040.1
19883
18521.8
17491.9
16041.6
13482.2
11055.5
10373.1
9123.94
7853.98
9466.63
10391.1
6892.59
3745.93
2442.85
1285.81
806.404
1279.3
860.792
-1777.32
-2415.99
-2256.49
-2099.86
-1857.48
-1679.74
-1491.99
-933.47
-228.971
241.281
172.432
746.769
1456.84
503.405
-219.445
-2.43567e+07
-2.29697e+07
-2.29262e+07
-2.19072e+07
-2.04575e+07
-1.9535e+07
-1.95541e+07
-1.96236e+07
-1.90877e+07
-1.6634e+07
-1.5538e+07
-1.55653e+07
-1.57003e+07
-1.52484e+07
-1.42746e+07
-1.34891e+07
-1.32655e+07
-1.30946e+07
-1.23533e+07
-1.14661e+07
-1.08337e+07
-1.02233e+07
-9.34588e+06
-8.16821e+06
-6.90654e+06
-6.28707e+06
-5.73954e+06
-5.51012e+06
-5.03636e+06
-3.79799e+06
-3.3692e+06
-3.69429e+06
-3.62596e+06
-3.27228e+06
-2.94684e+06
-2.61925e+06
-2.18974e+06
-1.63806e+06
-1.09647e+06
-727628
-382257
-331294
-309422
-251615
-274556
-285098
-258688
-224214
-136128
-33726
38174.9
56241.8
46941.2
34665.3
29078.3
28585.5
28745.2
27560.7
26764.3
27258.9
27353.8
26859.2
26080.7
25878.3
25779.9
24473.7
22065.4
19987.3
18616.8
17595.8
16216.7
13774.3
11132.3
10184.2
8927.24
6870.53
8514.76
10312.4
6851.75
3527.32
2505.32
1447.01
1064.12
1665.17
958.757
-2041.59
-2697.33
-2501.2
-2340.51
-2098.87
-1894.77
-1654.94
-1075.4
-320.45
188.185
29.4405
595.381
1391.75
654.035
-38.4981
-2.42432e+07
-2.30424e+07
-2.2974e+07
-2.19602e+07
-2.05277e+07
-1.95446e+07
-1.95378e+07
-1.96272e+07
-1.90021e+07
-1.66572e+07
-1.56337e+07
-1.5625e+07
-1.56513e+07
-1.51975e+07
-1.43939e+07
-1.35995e+07
-1.33086e+07
-1.31992e+07
-1.22541e+07
-1.13108e+07
-1.07328e+07
-1.01181e+07
-9.19762e+06
-8.06799e+06
-6.91344e+06
-6.28937e+06
-5.69871e+06
-5.53929e+06
-5.00206e+06
-3.81479e+06
-3.41106e+06
-3.70825e+06
-3.60987e+06
-3.25462e+06
-2.87035e+06
-2.61441e+06
-2.1796e+06
-1.64356e+06
-1.12888e+06
-817509
-356226
-289825
-322301
-265530
-271872
-291343
-265619
-231206
-141648
-36360.4
36205.6
53985.6
44827.9
32233.2
26714.4
26795.8
27776.2
27173.6
26581.9
27242.1
27467.3
26967
26042.1
25775.8
25614.1
24337.9
22114.6
20085.8
18698.2
17668.7
16409.9
14065.9
11205.1
10002.4
8681.93
5813.51
7501.29
9996.18
6912.06
3322.14
2532.67
1672.88
1427.57
2152.01
1059.47
-2259.55
-2895.23
-2707
-2588.78
-2346.12
-2099.1
-1806.11
-1214.31
-416.233
74.6359
-133.754
432.581
1273.92
781.209
155.623
-2.41246e+07
-2.30967e+07
-2.29996e+07
-2.20234e+07
-2.06327e+07
-1.95828e+07
-1.95346e+07
-1.95764e+07
-1.88889e+07
-1.66878e+07
-1.56882e+07
-1.56785e+07
-1.56042e+07
-1.52323e+07
-1.45075e+07
-1.3722e+07
-1.33399e+07
-1.32201e+07
-1.21508e+07
-1.11627e+07
-1.06405e+07
-1.00577e+07
-9.03501e+06
-7.91651e+06
-6.85405e+06
-6.29891e+06
-5.6483e+06
-5.54252e+06
-5.00788e+06
-3.82999e+06
-3.4621e+06
-3.74589e+06
-3.58796e+06
-3.22543e+06
-2.78874e+06
-2.61766e+06
-2.19274e+06
-1.64808e+06
-1.15632e+06
-898841
-335004
-244080
-335650
-295947
-272321
-291234
-275314
-244378
-148948
-38977.1
34007.5
51370.1
42607.6
29631.4
24331.2
25020.4
26791.1
26813
26464.3
27325.5
27641.3
27023.6
26107.6
25731
25445.8
24173.9
22161.7
20160.1
18763.5
17709.5
16560.9
14360.2
11307
9791.49
8448.79
4659.4
6364.05
9500.79
6966.2
3303.96
2577.57
1891.59
1884.77
2814.25
1177.52
-2383.97
-3017.18
-2929.17
-2828.79
-2589.41
-2318.48
-1962.91
-1357.02
-518.403
-21.0772
-322.122
201.92
1141.73
869.152
321.054
-2.40039e+07
-2.31205e+07
-2.30337e+07
-2.21021e+07
-2.07605e+07
-1.96402e+07
-1.95359e+07
-1.94943e+07
-1.87288e+07
-1.67148e+07
-1.57175e+07
-1.57035e+07
-1.5595e+07
-1.52699e+07
-1.46427e+07
-1.386e+07
-1.33709e+07
-1.3143e+07
-1.20611e+07
-1.10753e+07
-1.06404e+07
-1.0018e+07
-8.91518e+06
-7.7449e+06
-6.74732e+06
-6.27301e+06
-5.57933e+06
-5.50971e+06
-5.05942e+06
-3.84902e+06
-3.48598e+06
-3.76986e+06
-3.55485e+06
-3.21104e+06
-2.73299e+06
-2.60875e+06
-2.23289e+06
-1.66725e+06
-1.19794e+06
-927569
-319192
-210640
-354870
-326440
-277981
-291510
-276838
-262052
-156309
-40937.4
31502.1
48388
40450.7
26959.2
21904.9
23264.6
25860.6
26411.7
26303.1
27395
27869.2
27240.3
26171.3
25693.4
25227.6
24047.2
22144.3
20232.9
18839
17741.6
16648.7
14673.1
11524.2
9498.45
8054.28
3493.88
5193.58
8795.84
7011.37
3371.75
2630.93
2193.45
2515.67
3512.93
1302.4
-2475.98
-3132.14
-3062.46
-3093.81
-2939.14
-2506.7
-2107.67
-1511.52
-644.249
-113.831
-504.119
-52.6396
988.778
973.475
510.069
-2.38989e+07
-2.31137e+07
-2.30866e+07
-2.2193e+07
-2.09057e+07
-1.97229e+07
-1.95372e+07
-1.94071e+07
-1.85392e+07
-1.67534e+07
-1.57352e+07
-1.57579e+07
-1.56535e+07
-1.52736e+07
-1.47817e+07
-1.40637e+07
-1.34116e+07
-1.30856e+07
-1.18818e+07
-1.09969e+07
-1.06504e+07
-9.91221e+06
-8.85954e+06
-7.49603e+06
-6.64934e+06
-6.20725e+06
-5.50654e+06
-5.46076e+06
-5.13515e+06
-3.87947e+06
-3.4631e+06
-3.75466e+06
-3.52583e+06
-3.19398e+06
-2.7189e+06
-2.5985e+06
-2.30318e+06
-1.66447e+06
-1.26307e+06
-922132
-331567
-192085
-375765
-343198
-283897
-301581
-278551
-278157
-162738
-44448.9
28232.4
43252.8
37540.2
24175.6
19360.7
21528.2
24881.2
25859.3
26194.6
27553.9
28130.1
27488.3
26335.7
25625.6
25062.2
23915.5
22105.3
20275.3
18889.1
17759.2
16721.1
14951.5
11816.6
9197.43
7435.11
2322.79
3930.68
7908.29
6987.31
3551.79
2688.65
2552.59
3253.82
4206.62
1476.53
-2523.11
-3160.59
-3177.05
-3402.32
-3264.99
-2680.02
-2250.35
-1682.25
-790.138
-227.459
-736.647
-268.827
848.633
1053.12
654.292
-2.38013e+07
-2.31099e+07
-2.31371e+07
-2.21985e+07
-2.10496e+07
-1.98466e+07
-1.95307e+07
-1.9341e+07
-1.83722e+07
-1.67917e+07
-1.57789e+07
-1.58205e+07
-1.56492e+07
-1.52047e+07
-1.48532e+07
-1.41807e+07
-1.34201e+07
-1.29779e+07
-1.14447e+07
-1.0837e+07
-1.05375e+07
-9.89831e+06
-8.78628e+06
-7.27161e+06
-6.61375e+06
-6.10817e+06
-5.45287e+06
-5.41527e+06
-5.16609e+06
-3.93151e+06
-3.43379e+06
-3.69573e+06
-3.5216e+06
-3.18921e+06
-2.74302e+06
-2.57379e+06
-2.39317e+06
-1.6594e+06
-1.32918e+06
-932398
-397449
-194669
-384437
-349697
-292410
-313061
-285218
-286569
-172735
-43500.8
20081.4
34176
33076.2
21208.8
16827.2
19879.7
23758.8
25285.9
26100.6
27625.6
28431.5
27800.3
26527
25628.9
24864.4
23738.5
22074.7
20353.3
18989
17771.3
16729.6
15201.3
12142.5
8881.42
6683.35
1308.77
2730.24
6888.16
6914.87
3859.54
2772.77
3038.39
4022.35
4921.56
1704.22
-2439.51
-3160.36
-3280.1
-3620.26
-3542.95
-2888.81
-2397.81
-1835.8
-968.514
-452.644
-972.504
-503.678
690.049
1128.81
806.91
-2.37039e+07
-2.31219e+07
-2.31857e+07
-2.21067e+07
-2.11899e+07
-2.00051e+07
-1.95252e+07
-1.93083e+07
-1.82566e+07
-1.6841e+07
-1.58881e+07
-1.5849e+07
-1.56026e+07
-1.50982e+07
-1.48463e+07
-1.41958e+07
-1.34751e+07
-1.28695e+07
-1.12599e+07
-1.08133e+07
-1.05598e+07
-9.85178e+06
-8.82024e+06
-7.21827e+06
-6.60616e+06
-5.96457e+06
-5.36959e+06
-5.37013e+06
-5.20531e+06
-4.06154e+06
-3.41126e+06
-3.63065e+06
-3.54096e+06
-3.25045e+06
-2.87949e+06
-2.56622e+06
-2.44284e+06
-1.69303e+06
-1.42796e+06
-945487
-457211
-205991
-380544
-352415
-309744
-325063
-290473
-279635
-191393
-40865
7762.55
21807.6
27204.7
18081.6
14338.2
18252.8
22541.8
24752.1
25988.6
27755.8
28778.3
28116.6
26757.8
25647.7
24734.8
23560
22039.1
20368.2
19041.3
17781.9
16761.7
15381.6
12485.9
8712.67
5932.12
404.458
1585.77
5892.06
6810.41
4203.27
2892.38
3642.44
4894.72
5593.76
1957.65
-2326.07
-3105.2
-3318.94
-3794.41
-3787.77
-3106.04
-2516.23
-2000.23
-1228.3
-704.346
-1203.59
-744.609
528.697
1191.51
904.441
-2.36295e+07
-2.31415e+07
-2.32154e+07
-2.20111e+07
-2.13357e+07
-2.01775e+07
-1.95416e+07
-1.92908e+07
-1.81699e+07
-1.68856e+07
-1.60607e+07
-1.58784e+07
-1.56131e+07
-1.50189e+07
-1.47853e+07
-1.41308e+07
-1.35224e+07
-1.28124e+07
-1.13147e+07
-1.08812e+07
-1.05939e+07
-9.68899e+06
-9.01834e+06
-7.44799e+06
-6.63759e+06
-5.84768e+06
-5.32799e+06
-5.34441e+06
-5.23952e+06
-4.19946e+06
-3.4323e+06
-3.61338e+06
-3.58148e+06
-3.31291e+06
-3.02743e+06
-2.58989e+06
-2.44759e+06
-1.76001e+06
-1.54628e+06
-949024
-443491
-208753
-366247
-359123
-327256
-333349
-298652
-265781
-202512
-46510.6
-8406.71
7992.96
20681.9
14845
11912
16663
21356.5
24172.2
25976.1
27952.3
29172.1
28450.7
26958.8
25736.8
24617.6
23412.9
21949.9
20371.9
19095.1
17796.8
16720.4
15558.9
12834.7
8593.03
5302.32
-253.66
455.82
4869.56
6669.19
4586.31
3110.76
4342.74
5798.45
6225.5
2215.45
-2136.26
-2984.76
-3331.24
-3909.01
-4017.29
-3326.69
-2641.05
-2228.08
-1495.74
-958.644
-1396.76
-975.237
355.363
1240.41
1007.63
-2.3573e+07
-2.31595e+07
-2.32225e+07
-2.19585e+07
-2.13682e+07
-2.03441e+07
-1.95923e+07
-1.92371e+07
-1.80888e+07
-1.68159e+07
-1.61545e+07
-1.58461e+07
-1.55517e+07
-1.49403e+07
-1.46184e+07
-1.39911e+07
-1.35987e+07
-1.28619e+07
-1.14122e+07
-1.09526e+07
-1.04874e+07
-9.61445e+06
-9.09949e+06
-7.75375e+06
-6.65032e+06
-5.84794e+06
-5.33396e+06
-5.23991e+06
-5.24826e+06
-4.38651e+06
-3.61908e+06
-3.62498e+06
-3.65557e+06
-3.37285e+06
-3.06423e+06
-2.64552e+06
-2.44445e+06
-1.82658e+06
-1.61747e+06
-1.00869e+06
-344858
-199311
-367176
-369113
-338563
-332129
-305085
-257933
-194495
-52770
-25006.6
-4988.98
14454.1
11495.8
9541.58
14974
20215.5
23628.4
26016.3
28209.2
29563.4
28812.9
27183.6
25853.8
24552.1
23257.1
21848.4
20379.1
19159.1
17783.9
16633.3
15659
13190.5
8610.02
4718.96
-692.926
-500.68
3944.64
6593.54
5029.25
3498.68
5120.1
6637.39
6761.61
2481.26
-1847.02
-2864.91
-3337.37
-4014.12
-4232.42
-3573.86
-2813.84
-2455.48
-1726.85
-1218.88
-1564.26
-1166.15
200.079
1269.67
1080.52
-2.35206e+07
-2.3171e+07
-2.3215e+07
-2.19531e+07
-2.12571e+07
-2.0503e+07
-1.96507e+07
-1.91372e+07
-1.80121e+07
-1.66585e+07
-1.60648e+07
-1.56701e+07
-1.53632e+07
-1.48864e+07
-1.4388e+07
-1.38883e+07
-1.36906e+07
-1.2801e+07
-1.13763e+07
-1.09504e+07
-1.02943e+07
-9.60495e+06
-9.09623e+06
-8.04217e+06
-6.60593e+06
-5.79423e+06
-5.24813e+06
-5.03159e+06
-5.21379e+06
-4.51133e+06
-3.80567e+06
-3.64892e+06
-3.70584e+06
-3.42952e+06
-3.08316e+06
-2.719e+06
-2.48313e+06
-1.89136e+06
-1.62531e+06
-1.15914e+06
-304073
-181415
-383549
-379622
-348401
-331209
-308847
-254961
-184463
-55656
-35781.2
-15733.4
9222.24
8531.2
7247.25
13240.2
19080.6
23053.7
26072.8
28458.8
29945.4
29163.3
27403
25991.7
24473
23092.7
21783.4
20371.4
19217.4
17819.4
16573.4
15712.5
13542.5
8769.52
4281.29
-1106.49
-1434.98
3215.94
6506.69
5500.02
3960.78
5902.12
7405.35
7213.18
2776.11
-1539.72
-2758.5
-3304.76
-4084.57
-4410.79
-3847.27
-2960.99
-2613.69
-1987.27
-1469.97
-1706.84
-1320.41
63.7474
1303.18
1120.39
-2.34792e+07
-2.31766e+07
-2.31782e+07
-2.19486e+07
-2.1136e+07
-2.06811e+07
-1.97539e+07
-1.91079e+07
-1.78746e+07
-1.64794e+07
-1.5966e+07
-1.55488e+07
-1.51957e+07
-1.48615e+07
-1.42788e+07
-1.39172e+07
-1.37419e+07
-1.27067e+07
-1.13128e+07
-1.09108e+07
-1.02085e+07
-9.5782e+06
-9.08903e+06
-8.15591e+06
-6.53141e+06
-5.77498e+06
-5.20642e+06
-4.91314e+06
-5.22313e+06
-4.68203e+06
-3.89282e+06
-3.6862e+06
-3.70708e+06
-3.45517e+06
-3.11379e+06
-2.78031e+06
-2.5088e+06
-2.02028e+06
-1.59322e+06
-1.20729e+06
-372413
-169861
-396105
-396592
-357133
-336951
-320833
-255240
-171792
-54787.2
-41098.3
-23230.7
4197.12
6198.81
4933.08
11641.8
17969.8
22510.3
26139.2
28718.1
30189.1
29426.4
27652.6
26084.3
24415.3
22960.2
21688.7
20370.1
19283.4
17863
16512.6
15684.7
13912.6
9063.21
4073.96
-1355.84
-2302.23
2596.05
6437.73
5972.4
4494.34
6551.13
8076.77
7641.05
3080.02
-1237.22
-2646.89
-3288.56
-4123.23
-4586.27
-4090.82
-3112.99
-2764.51
-2241.46
-1703.04
-1800.91
-1466.35
-34.4144
1339.36
1144.55
-2.34691e+07
-2.31811e+07
-2.31109e+07
-2.19296e+07
-2.1077e+07
-2.0761e+07
-1.98777e+07
-1.90904e+07
-1.75958e+07
-1.6412e+07
-1.59305e+07
-1.54745e+07
-1.51258e+07
-1.48442e+07
-1.43306e+07
-1.39786e+07
-1.36821e+07
-1.25923e+07
-1.12723e+07
-1.0893e+07
-1.02123e+07
-9.49616e+06
-9.15262e+06
-8.17871e+06
-6.53839e+06
-5.85428e+06
-5.23312e+06
-4.92506e+06
-5.20244e+06
-4.84929e+06
-3.93252e+06
-3.70223e+06
-3.68819e+06
-3.42423e+06
-3.13148e+06
-2.83443e+06
-2.49885e+06
-2.10896e+06
-1.54459e+06
-1.12874e+06
-446820
-182821
-401899
-422990
-368848
-349770
-336425
-255137
-156200
-50541.8
-42296.9
-27947.6
-407.355
4392
2560.33
10155.3
16977.7
22049.6
26199.3
28899.5
30275.2
29627.1
27856.7
26176.3
24376.2
22803.6
21572.8
20353.1
19361.3
17884.7
16499.1
15649.1
14235.6
9528.23
4180.24
-1385.3
-3041.09
2076.56
6437.33
6503.21
5148.23
7234.5
8658.42
7902.59
3324.18
-848.831
-2491.69
-3302.84
-4134.89
-4714.47
-4309.54
-3258.58
-2905.11
-2477.34
-1938.18
-1888.22
-1564.04
-116.611
1388.15
1136.69
-2.34788e+07
-2.31942e+07
-2.30642e+07
-2.19603e+07
-2.11e+07
-2.06649e+07
-1.9983e+07
-1.89706e+07
-1.7289e+07
-1.63476e+07
-1.5824e+07
-1.54366e+07
-1.50756e+07
-1.48613e+07
-1.44642e+07
-1.40283e+07
-1.35552e+07
-1.25362e+07
-1.12786e+07
-1.08246e+07
-1.02032e+07
-9.48211e+06
-9.20022e+06
-8.03376e+06
-6.55304e+06
-6.04451e+06
-5.29865e+06
-4.97547e+06
-5.17255e+06
-4.93474e+06
-4.01981e+06
-3.67318e+06
-3.63174e+06
-3.38087e+06
-3.13907e+06
-2.87498e+06
-2.46262e+06
-2.13234e+06
-1.52314e+06
-1.0051e+06
-503173
-241353
-402811
-445180
-384779
-363870
-353193
-254455
-137126
-45282.7
-40620.6
-30069.9
-4201.48
3267.54
428.084
8806.49
16097.3
21696.8
26232.3
28898.7
30319.8
29774
28019.2
26241.6
24313.6
22668.3
21451
20381.7
19444.7
17958.9
16488.9
15632.3
14548.8
10121.4
4523.07
-1049.1
-3490.47
1750.57
6468.23
7042.62
5874.3
7780.5
9191.34
8131.72
3485.35
-480.327
-2356.33
-3338.55
-4159.78
-4823.77
-4556.98
-3398.77
-3030.81
-2671.36
-2144.08
-1992.77
-1617.81
-167.045
1431.16
1111.89
-2.35043e+07
-2.32214e+07
-2.30557e+07
-2.20781e+07
-2.11609e+07
-2.05381e+07
-2.00978e+07
-1.88651e+07
-1.70598e+07
-1.61824e+07
-1.57458e+07
-1.5473e+07
-1.50414e+07
-1.48806e+07
-1.46354e+07
-1.41044e+07
-1.33951e+07
-1.24596e+07
-1.12464e+07
-1.07239e+07
-1.0176e+07
-9.47248e+06
-9.17588e+06
-7.93158e+06
-6.55249e+06
-6.21025e+06
-5.36054e+06
-4.96645e+06
-5.17594e+06
-4.93317e+06
-4.14029e+06
-3.67164e+06
-3.54858e+06
-3.33899e+06
-3.13246e+06
-2.89594e+06
-2.43544e+06
-2.1206e+06
-1.59102e+06
-977445
-550309
-314875
-405189
-456946
-396778
-375073
-366270
-253835
-116822
-39480.1
-37653.6
-29865.1
-7605.56
2100.53
-1164.49
7560.12
15293
21462.7
26114.1
28835.9
30298.1
29871
28138
26287.5
24268.3
22530.8
21312.2
20390.7
19549.7
18022.7
16474.4
15633.8
14838.7
10810.3
5142.38
-285.036
-3516.27
1685.47
6526.78
7483.53
6643
8301.89
9662.15
8365.29
3688.43
-167.551
-2237.03
-3361.33
-4161.92
-4905.13
-4748.15
-3478.05
-3171.85
-2834.09
-2258.32
-2038.51
-1648.61
-211.528
1461.45
1100.09
-2.35481e+07
-2.32615e+07
-2.30754e+07
-2.22589e+07
-2.12089e+07
-2.04487e+07
-2.01065e+07
-1.87672e+07
-1.68973e+07
-1.60204e+07
-1.57415e+07
-1.54707e+07
-1.49935e+07
-1.49375e+07
-1.4707e+07
-1.40552e+07
-1.32569e+07
-1.23926e+07
-1.12665e+07
-1.06298e+07
-1.01107e+07