/*--------------------------------*- C++ -*----------------------------------*\
| =========                 |                                                 |
| \\      /  F ield         | foam-extend: Open Source CFD                    |
|  \\    /   O peration     | Version:     5.0                                |
|   \\  /    A nd           | Web:         http://www.foam-extend.org         |
|    \\/     M anipulation  |                                                 |
\*---------------------------------------------------------------------------*/
FoamFile
{
    version     2.0;
    format      ascii;
    class       surfaceScalarField;
    location    "0.1";
    object      phi;
}
// * * * * * * * * * * * * * * * * * * * * * * * * * * * * * * * * * * * * * //

dimensions      [0 3 -1 0 0 0 0];

internalField   nonuniform List<scalar> 
7860
(
-13.9881
13.9931
-15.1984
1.21032
-16.7374
1.53893
-17.2486
0.511151
-17.4751
0.226484
-17.5318
0.0566802
-16.606
-0.925861
-16.544
-0.0620198
-26.8271
10.283
-35.8563
9.02908
-24.7959
-11.0604
-13.7114
-11.0847
-10.1916
-3.51983
-8.52615
-1.66549
-6.19042
-2.33577
-2.69618
-3.49428
0.807828
-3.50404
4.14216
-3.33437
-0.0388776
4.18098
-7.1484
7.10946
-8.57701
1.42856
-11.2624
2.68532
-11.7377
0.475272
-8.65721
-3.08046
-6.4407
-2.21652
-9.04917
2.60845
-9.90279
0.853619
-0.660126
-9.24267
9.69857
-10.3587
14.6521
-4.95354
15.6535
-1.0014
15.2813
0.37215
13.8867
1.39466
12.8614
1.0253
12.9003
-0.0389317
11.1322
1.76815
8.29737
2.83478
7.10527
1.19209
7.92347
-0.818195
9.12067
-1.19721
9.48476
-0.364099
9.1414
0.343341
8.47052
0.670858
7.5584
0.912095
6.26417
1.29421
4.31546
1.9487
2.18905
2.12639
0.498044
1.691
-0.434275
0.932304
-0.69351
0.259206
-0.533523
-0.160036
-0.274765
-0.258828
-0.0828376
-0.192018
-0.00112725
-0.0818149
0.00369859
-0.00492894
-0.0729329
0.0765413
-0.147595
0.0746139
-0.202444
0.0548451
-0.225432
0.0230566
-0.225255
-5.78437e-05
-0.229096
0.00401829
-0.21423
-0.0146615
-0.182884
-0.0311221
-0.145782
-0.0368826
-0.107313
-0.0382636
-0.082862
-0.0242734
-0.0638061
-0.0189161
-0.0431824
-0.0205095
-0.0175387
-0.0255708
0.0128111
-0.0302921
0.0239211
-0.0110853
0.0164551
0.0074826
0.00826373
0.00816959
0.0157731
-0.00755572
0.0413934
-0.0257211
0.0784241
-0.0371604
0.115824
-0.0375628
0.139778
-0.0241087
0.137207
0.00243279
0.119466
0.0176557
0.10773
0.0116998
0.0980824
0.00966562
0.0970272
0.00110889
0.113171
-0.0160674
0.135006
-0.0217681
0.142038
-0.00698688
0.118726
0.023318
0.0884873
0.0302183
0.0657607
0.0226808
0.0478377
0.0178691
0.0431165
0.0046549
0.0434591
-0.000413363
0.0247131
0.0186641
0.00603089
0.018597
0.00399046
0.0019535
0.0057955
-0.0018868
0.00584458
-0.00011954
0.00202622
0.0037595
-0.0186358
0.0206216
0.00781102
-4.72273
18.7208
-4.74354
1.23109
-4.72677
1.52212
-4.88146
0.665804
-5.91365
1.25862
-10.1505
4.29348
-15.7849
4.70848
-21.34
5.49299
-19.3179
8.26078
-10.0261
-0.2629
-4.4991
-16.5876
2.25633
-17.8402
6.60516
-7.86873
7.84633
-2.90672
10.562
-5.05148
12.9504
-5.88276
12.9142
-3.46786
11.3398
-1.76005
10.8481
4.67252
9.93463
8.0229
3.62968
7.73345
0.864291
5.45066
4.46135
-3.12181
8.13885
-6.75799
7.70362
-1.7813
3.03707
7.27499
-2.14056
6.03124
-6.91685
-4.46639
-4.60844
-12.6671
-2.31466
-7.24733
-0.155621
-3.16046
6.68278
-6.46627
13.8352
-5.75773
19.1291
-4.26868
21.6031
-2.51287
19.8365
3.53473
16.6934
5.97781
15.185
2.70049
14.4199
-0.0530161
13.633
-0.410381
12.9065
0.362392
12.0442
1.20555
12.0644
0.650568
11.8798
1.09672
10.9901
2.18389
9.22221
3.71656
6.67053
4.67805
4.10001
4.26149
2.11239
2.91988
0.918311
1.4532
0.3841
0.37405
0.244388
-0.119276
0.137023
-0.0848352
0.0115485
0.0434715
-0.167211
0.173679
-0.357804
0.267038
-0.529026
0.245851
-0.647491
0.173424
-0.711035
0.0868485
-0.71989
0.00913087
-0.700541
-0.0149019
-0.654421
-0.0603262
-0.595445
-0.0896358
-0.530899
-0.100987
-0.451895
-0.116883
-0.354335
-0.121517
-0.274715
-0.0983032
-0.202683
-0.0923505
-0.138827
-0.0893184
-0.0721024
-0.0969342
-0.027557
-0.0556244
-0.0150522
-0.00504946
-0.00756133
0.000551024
0.0219824
-0.0372857
0.0800457
-0.084069
0.151215
-0.108643
0.213621
-0.100305
0.256661
-0.0674198
0.266997
-0.0081027
0.250297
0.0342725
0.233162
0.0288463
0.229119
0.0138058
0.243344
-0.0129855
0.277328
-0.0499172
0.305766
-0.0501199
0.304943
-0.00613121
0.263501
0.064721
0.193695
0.0999468
0.13715
0.0791091
0.0950335
0.0598558
0.0696209
0.0299124
0.0705139
-0.00147123
0.0554042
0.0335919
0.0272064
0.0466118
0.0087989
0.0201854
1.36915e-05
0.00674044
-0.0101781
0.00994604
-0.0288492
0.0223323
-0.055985
0.0477011
0.0109193
-0.212417
18.9382
-0.470772
1.48941
-2.20597
3.2573
-3.62932
2.08912
-3.82785
1.45712
-8.0706
8.53617
-12.6947
9.3325
-15.1201
7.91829
-13.0174
6.15805
-3.81045
-9.46998
3.72018
-24.1183
6.7068
-20.8268
7.21321
-8.37518
4.10728
0.19917
4.68796
-5.63221
8.50364
-9.69848
9.62458
-4.58884
10.3616
-2.49713
11.4702
3.56388
11.7575
7.73557
10.6696
8.82133
2.4658
13.6544
-10.427
9.77095
-8.2631
-8.92192
3.68733
-13.7317
7.48395
3.47836
7.49442
6.02074
2.86054
0.167468
-2.79929
-7.00733
-2.72539
-7.32127
3.06536
-8.95124
9.90764
-13.3086
16.7416
-12.5917
20.4277
-7.95473
19.451
-1.53618
15.1522
7.83349
12.3288
8.80123
10.0494
4.97984
7.70728
2.28909
5.45181
1.84503
4.84349
0.970623
4.76772
1.28122
5.60504
-0.186818
7.64297
-0.941248
9.58871
0.238127
9.61968
3.68557
8.02757
6.27014
5.97562
6.31342
3.98291
4.91254
2.4353
3.00073
1.47161
1.33763
0.892829
0.459357
0.430972
0.376851
-0.0206833
0.494948
-0.428572
0.581425
-0.794857
0.633234
-1.03179
0.482803
-1.15958
0.301342
-1.2022
0.12973
-1.19977
0.00705022
-1.17004
-0.044192
-1.09794
-0.131965
-1.0267
-0.160404
-0.954036
-0.173227
-0.853696
-0.216868
-0.722716
-0.252196
-0.572055
-0.248738
-0.448371
-0.215853
-0.333499
-0.20409
-0.217557
-0.212801
-0.138039
-0.135146
-0.0896169
-0.0535122
-0.0690381
-0.0201753
-0.0355789
-0.0709536
0.0285459
-0.148506
0.0991444
-0.179578
0.165134
-0.166642
0.219708
-0.122254
0.265035
-0.0536083
0.282344
0.0168984
0.260743
0.0504743
0.281062
-0.00640536
0.322254
-0.0540436
0.349746
-0.0772803
0.367798
-0.068097
0.340497
0.0211927
0.252412
0.152761
0.161659
0.190619
0.0942378
0.146411
0.0387486
0.115212
0.0111064
0.0573948
0.00923449
0.000229393
0.0204865
0.0221509
0.0140615
0.0528453
-0.00794143
0.0420061
-0.029935
0.0285712
-0.0516011
0.0314846
-0.0668042
0.0374379
-0.0815728
0.0624165
0.0105806
2.04875
16.8944
1.39418
2.14396
-1.34584
5.9973
-2.841
3.58425
-2.28417
0.900253
-4.10321
10.3552
-6.5994
11.8286
-8.34014
9.65898
-7.86724
5.68508
-3.12329
-14.214
4.35319
-31.5948
4.32266
-20.7964
-0.950416
-3.10217
-6.13292
5.3816
-2.87862
-8.88657
1.27981
-13.857
2.92371
-6.23281
3.84534
-3.41882
8.06791
-0.658752
12.5826
3.2208
11.4938
9.91008
6.98871
18.1595
4.33996
12.4197
1.58736
-6.16934
4.47295
-16.6174
6.72452
1.22677
8.63942
4.10583
12.0566
-3.24969
6.26207
-1.21286
4.71213
-5.77136
11.7949
-16.034
17.9004
-19.4142
19.4296
-14.1209
18.1694
-6.69447
12.898
3.73519
7.84381
12.8877
4.39143
12.2536
1.03047
8.34078
0.72498
2.59454
1.40735
1.16257
3.125
-0.747145
4.93859
-0.532449
6.00123
-1.2495
6.52545
-1.46552
6.93563
-0.172085
7.94606
2.67512
8.2099
6.00629
6.94115
7.58215
5.18489
6.66877
3.5055
4.68006
2.24973
2.59331
1.35409
1.35487
0.580774
1.15001
-0.0997364
1.17529
-0.685749
1.1673
-1.1077
1.05509
-1.39561
0.770728
-1.55085
0.456697
-1.59669
0.175808
-1.59185
0.00252338
-1.56271
-0.0729309
-1.50362
-0.190652
-1.41311
-0.250509
-1.32359
-0.26238
-1.2187
-0.321446
-1.04406
-0.426569
-0.872805
-0.419789
-0.714577
-0.373919
-0.533049
-0.385528
-0.368206
-0.377577
-0.267245
-0.236114
-0.19802
-0.122776
-0.150624
-0.0677055
-0.118187
-0.103584
-0.0634871
-0.203501
-0.00415805
-0.239221
0.0474908
-0.218598
0.127794
-0.202782
0.189952
-0.115924
0.234984
-0.0281906
0.25875
0.0267326
0.285438
-0.0329982
0.330572
-0.0990601
0.363044
-0.109639
0.367415
-0.0724015
0.297475
0.0911552
0.187333
0.262864
0.0660648
0.311817
-0.0267153
0.239082
-0.0757053
0.164081
-0.0959677
0.0775105
-0.0870807
-0.00881509
-0.0655685
0.000463776
-0.054905
0.0420029
-0.0659013
0.0528317
-0.0847553
0.0472729
-0.103982
0.0505921
-0.11317
0.0465354
-0.119568
0.0687643
0.00767421
3.27291
13.6265
2.1275
3.28936
-1.27161
9.39639
-3.50735
5.81996
-2.38604
-0.221088
-1.2526
9.22171
-2.58442
13.1604
-4.03364
11.1082
-2.67593
4.32732
-2.16995
-14.72
-1.30962
-32.4552
0.26442
-22.3705
5.43363
-8.27146
6.91301
3.90216
-0.284058
-1.68955
-1.66126
-12.4798
3.34345
-11.2376
2.86525
-2.94069
5.92486
-3.71844
11.7137
-2.56811
14.1651
7.45861
11.7213
20.6033
9.39288
14.748
7.81724
-4.59372
10.9344
-19.7345
15.0822
-2.9211
15.7706
3.41746
17.546
-5.02512
15.7095
0.623615
13.6991
-3.76098
15.2511
-17.586
19.2282
-23.3913
18.8304
-13.7231
13.2036
-1.0677
9.63102
7.30779
9.3876
13.1311
5.27255
16.3687
1.47186
12.1415
0.171221
3.89515
1.53299
-0.199262
4.14682
-3.36105
5.42458
-1.81026
5.45811
-1.28308
4.65587
-0.663316
5.07436
-0.590614
6.52124
1.22821
7.11187
5.41564
6.82211
7.87188
5.69094
7.79991
4.17711
6.19384
2.78028
3.99005
1.63496
2.50007
0.658136
2.12669
-0.19182
2.02508
-0.853114
1.82845
-1.31919
1.52108
-1.62454
1.07609
-1.79203
0.624291
-1.85197
0.235976
-1.84355
-0.00558882
-1.8091
-0.107011
-1.74787
-0.251487
-1.66892
-0.329078
-1.55696
-0.373978
-1.41914
-0.458968
-1.26692
-0.578522
-1.05913
-0.627387
-0.856053
-0.576826
-0.672508
-0.568985
-0.529723
-0.520302
-0.398307
-0.367542
-0.291863
-0.229259
-0.241086
-0.118608
-0.201007
-0.143845
-0.162066
-0.242723
-0.12246
-0.279117
-0.0686519
-0.272685
0.0107829
-0.282421
0.105412
-0.210696
0.170201
-0.0930331
0.219374
-0.0224192
0.267546
-0.0810811
0.308999
-0.140406
0.343918
-0.144453
0.317021
-0.045443
0.227517
0.180681
0.0774865
0.412862
-0.0567072
0.445947
-0.169323
0.351598
-0.229252
0.223896
-0.221238
0.0693583
-0.19228
-0.0379211
-0.153601
-0.038383
-0.135871
0.0240988
-0.136867
0.0536639
-0.146246
0.0565069
-0.160514
0.0647452
-0.166669
0.0526032
-0.164414
0.0664619
0.000956264
3.94572
9.68578
2.3981
4.83697
-1.29085
13.0853
-4.77564
9.30472
-4.39456
-0.602204
-0.593813
5.42092
0.374923
12.1917
-1.08667
12.5697
-0.157612
3.39822
-1.30622
-13.5714
-4.88222
-28.8792
-5.16705
-22.0857
1.61132
-15.0499
5.20169
0.311744
2.63228
0.879806
-0.923938
-8.92367
-2.17377
-9.98784
0.683241
-5.79778
4.90671
-7.94199
9.03459
-6.69605
13.0535
3.43963
13.2214
20.4354
11.2767
16.6927
8.09666
-1.41368
11.4884
-23.1263
18.6626
-10.0953
15.2197
6.8604
13.7009
-3.50638
16.8615
-2.53697
18.6022
-5.50167
17.3718
-16.3556
13.2728
-19.2923
9.45246
-9.90283
6.66042
1.72433
7.65276
6.31542
10.1459
10.6379
6.3501
20.1645
2.17547
16.3161
-0.543813
6.6144
0.659509
-1.40265
3.90608
-6.60769
5.02656
-2.93079
5.36564
-1.62219
4.69382
0.00847488
3.69096
0.412213
4.08245
0.836683
5.5602
3.93786
6.09023
7.34183
5.44806
8.44205
4.37711
7.26474
3.08377
5.28331
1.81073
3.773
0.690489
3.24678
-0.278379
2.99379
-0.977593
2.52753
-1.44624
1.98963
-1.74898
1.37885
-1.90991
0.785325
-1.96267
0.288982
-1.95986
-0.00808475
-1.90849
-0.157999
-1.85319
-0.306387
-1.77546
-0.406416
-1.67027
-0.478813
-1.54539
-0.58355
-1.35982
-0.763821
-1.18295
-0.804054
-1.00836
-0.751259
-0.844116
-0.733147
-0.701265
-0.663102
-0.520353
-0.548471
-0.379691
-0.369964
-0.319084
-0.179334
-0.286869
-0.176234
-0.253892
-0.275969
-0.22137
-0.311914
-0.189509
-0.304806
-0.0970197
-0.3751
0.00696658
-0.314817
0.100711
-0.186828
0.174428
-0.0961149
0.229295
-0.135865
0.279069
-0.190079
0.301156
-0.166442
0.260354
-0.00458247
0.126067
0.314992
-0.0400621
0.578963
-0.201528
0.607357
-0.321281
0.471258
-0.343248
0.245757
-0.321348
0.0473287
-0.288779
-0.0706319
-0.238319
-0.0890085
-0.212521
-0.00187074
-0.208954
0.0499358
-0.207018
0.0544278
-0.210206
0.0678216
-0.206762
0.0490755
-0.186534
0.0461871
-0.0146642
4.22959
5.46119
2.07245
6.99409
-1.65321
16.811
-5.41077
13.0622
-5.52746
-0.485556
-0.260592
0.154019
1.32311
10.6079
-0.349709
14.2425
0.729334
2.31914
-0.299903
-12.5422
-7.26224
-21.917
-10.8364
-18.5116
-5.21835
-20.6681
-0.889593
-4.01707
-1.50946
1.49962
-2.05487
-8.37833
-1.32714
-10.7156
-0.126772
-6.99823
1.13486
-9.2037
5.20697
-10.7682
10.1113
-1.46475
12.746
17.8007
14.2342
15.2045
10.1566
2.66388
7.2598
-20.2295
13.5453
-16.3808
13.7386
6.66704
11.5729
-1.34072
9.60079
-0.564833
8.77316
-4.67405
9.60781
-17.1903
5.78828
-15.4728
1.38892
-5.5035
4.60199
-1.48876
10.0672
0.850164
10.9374
9.76769
9.07678
22.0251
6.43482
18.958
2.66362
10.3856
0.86208
0.398834
2.2103
-7.95598
3.41495
-4.13549
4.26603
-2.47331
4.05341
0.221066
3.64741
0.81818
3.36641
1.11765
3.68206
3.62219
4.55062
6.47323
4.79926
8.19337
4.09265
7.97129
3.03122
6.34466
1.82907
4.97503
0.691386
4.38434
-0.269405
3.95443
-0.982914
3.24091
-1.43198
2.43861
-1.75281
1.69969
-1.93918
0.971816
-1.99282
0.342868
-1.98033
-0.0202491
-1.92092
-0.217009
-1.8633
-0.363593
-1.78466
-0.484661
-1.6766
-0.586526
-1.54203
-0.717803
-1.39512
-0.910449
-1.24384
-0.955136
-1.0938
-0.901149
-0.943834
-0.883038
-0.762841
-0.844049
-0.603996
-0.707338
-0.48332
-0.490685
-0.392727
-0.270044
-0.34729
-0.221842
-0.32259
-0.300933
-0.317381
-0.31739
-0.297851
-0.324586
-0.212185
-0.460946
-0.0804706
-0.446659
0.0318104
-0.299157
0.123488
-0.187772
0.195748
-0.208045
0.23883
-0.233066
0.257764
-0.185283
0.179758
0.0734803
0.02452
0.470253
-0.170128
0.77359
-0.325667
0.762846
-0.393212
0.538717
-0.417805
0.270251
-0.39708
0.026481
-0.344288
-0.123563
-0.313037
-0.120421
-0.288605
-0.0264717
-0.267282
0.028454
-0.253753
0.0407581
-0.244607
0.0585667
-0.221054
0.0254394
-0.182661
0.00774592
-0.0351874
4.10644
1.35974
1.15978
9.94073
-2.10455
20.0753
-4.58259
15.5402
-4.61766
-0.45053
0.799237
-5.26291
2.71866
8.68847
1.15281
15.8083
1.03167
2.44025
0.175635
-11.6862
-4.93992
-16.8015
-6.91623
-16.5354
-6.21234
-21.3721
-4.70126
-5.52822
-7.43495
4.23325
-10.7421
-5.07124
-7.21559
-14.2423
-3.42201
-10.7919
0.484553
-13.1104
3.64795
-13.9317
6.10559
-3.92244
10.6254
13.2809
14.2668
11.563
10.0213
6.90938
0.676305
-10.8845
3.34718
-19.0516
10.158
-0.143761
7.69572
1.1215
1.78378
5.34709
1.68278
-4.57306
2.94081
-18.4483
0.0897247
-12.6217
0.806479
-6.22027
5.82143
-6.50373
10.0843
-3.41273
9.18114
10.6708
9.41536
21.7908
8.93504
19.4383
6.27506
13.0455
3.3396
3.33425
1.4944
-6.11084
1.92925
-4.5704
2.94578
-3.4899
2.96497
0.201843
3.01234
0.770787
2.78803
1.34194
2.83582
3.57437
2.98988
6.31915
3.33675
7.84644
3.38868
7.91931
2.69048
7.04277
1.70886
5.95654
0.696438
5.39663
-0.212936
4.86366
-0.9033
3.93115
-1.36496
2.90019
-1.66208
1.99683
-1.8587
1.16855
-1.95399
0.438406
-1.94629
-0.0276203
-1.87996
-0.282934
-1.80559
-0.437545
-1.73856
-0.551319
-1.64442
-0.68031
-1.52264
-0.839263
-1.39024
-1.04257
-1.2547
-1.09047
-1.12043
-1.03528
-0.97626
-1.02713
-0.837277
-0.982993
-0.684305
-0.860341
-0.536232
-0.638808
-0.440623
-0.365772
-0.404494
-0.258141
-0.388071
-0.317621
-0.399788
-0.305938
-0.411413
-0.313203
-0.316512
-0.556021
-0.175337
-0.587955
-0.0292322
-0.445308
0.0860969
-0.303081
0.155212
-0.277084
0.201718
-0.279481
0.196384
-0.179859
0.0999885
0.169931
-0.0875585
0.657826
-0.267551
0.953566
-0.394885
0.890137
-0.46761
0.611361
-0.473373
0.275917
-0.440694
-0.00631722
-0.404052
-0.160338
-0.371457
-0.153174
-0.336673
-0.0614212
-0.301622
-0.00675234
-0.281074
0.0200725
-0.266896
0.0442803
-0.232372
-0.00917018
-0.185539
-0.0391365
-0.0581468
3.72839
-2.36366
1.45119
12.2179
-0.619453
22.1459
-2.24801
17.1688
-3.69649
0.997914
0.386117
-9.34556
3.87725
5.19729
3.22588
16.4596
1.4835
4.18261
0.593273
-10.796
-1.19404
-15.0142
-1.56144
-16.1681
-3.6416
-19.292
-5.17491
-3.99497
-4.60527
3.66356
-7.12086
-2.55571
-9.56938
-11.7938
-2.33739
-18.024
5.77007
-21.2179
3.98989
-12.1516
4.56836
-4.50097
10.8849
6.96429
14.1557
8.29219
12.5949
8.47014
1.52531
0.185032
-3.90374
-13.6226
0.668657
-4.71619
2.03742
-0.247282
3.93554
3.44895
5.59032
-6.22786
1.52014
-14.3781
-2.89012
-8.21145
-0.924867
-8.18553
3.60012
-11.0287
5.27893
-5.09157
3.98656
11.9632
6.94143
18.836
7.67586
18.7039
6.23972
14.4816
4.53308
5.04083
1.81368
-3.39151
1.02405
-3.78084
1.28843
-3.75434
1.59373
-0.103498
1.83977
0.524724
1.60985
1.57184
1.37787
3.80632
1.68394
6.01305
1.96937
7.56096
2.13388
7.75472
2.05668
7.11988
1.47547
6.53762
0.67482
6.19713
-0.121217
5.65954
-0.773278
4.5831
-1.22514
3.35197
-1.53297
2.30468
-1.74117
1.37686
-1.85948
0.556961
-1.86522
-0.0215547
-1.80352
-0.344237
-1.73783
-0.502851
-1.66541
-0.623375
-1.58213
-0.763233
-1.4628
-0.95827
-1.34814
-1.15695
-1.23356
-1.20486
-1.10689
-1.1618
-0.975911
-1.15805
-0.834477
-1.12439
-0.690279
-1.00458
-0.55879
-0.770355
-0.477591
-0.447093
-0.435486
-0.300419
-0.432765
-0.320608
-0.484906
-0.25406
-0.517391
-0.280956
-0.430832
-0.642746
-0.260703
-0.7582
-0.0751051
-0.630948
0.0614042
-0.43957
0.127175
-0.342779
0.158182
-0.310401
0.141667
-0.163257
0.0130002
0.298652
-0.175914
0.846768
-0.35795
1.13559
-0.463169
0.995318
-0.498891
0.647002
-0.48264
0.25957
-0.431678
-0.0573963
-0.399696
-0.192452
-0.383577
-0.169445
-0.354306
-0.0908516
-0.313632
-0.0475784
-0.295338
0.00164289
-0.283139
0.0319707
-0.25086
-0.0415362
-0.199357
-0.0906895
-0.0832116
3.08683
-5.4455
1.76215
13.5426
1.06447
22.8435
-0.126085
18.3593
-3.71448
4.58627
-1.58485
-11.4752
4.45581
-0.843404
5.73129
15.1841
3.28039
6.63349
2.03517
-9.55085
1.97297
-14.9521
2.04343
-16.2386
0.147871
-17.3965
-1.71507
-2.13208
-0.990842
2.93929
0.113847
-3.66045
-0.495053
-11.185
1.43172
-19.9508
5.79426
-25.5805
5.28284
-11.6402
5.67197
-4.89016
10.9001
1.73605
15.4426
3.74971
10.4029
13.5098
-1.39483
11.9828
-6.50297
-8.51451
-4.97877
-6.24041
-2.28983
-2.93625
4.45113
-3.29203
7.97639
-9.75312
7.75095
-14.1527
4.45763
-4.91812
-0.395931
-3.33199
-2.75931
-8.66538
-2.45134
-5.39958
-0.759173
10.271
3.9085
14.1682
3.81581
18.7965
2.92853
15.3688
2.96613
5.00319
1.71149
-2.13693
1.41351
-3.48293
0.899632
-3.24051
0.854917
-0.058824
0.6817
0.697911
0.281508
1.97201
-0.00225902
4.09006
0.141444
5.8693
0.561185
7.14116
1.04745
7.26837
1.27875
6.88847
1.16006
6.65618
0.636013
6.72102
-0.0225471
6.31794
-0.607097
5.16752
-1.04795
3.79275
-1.34031
2.59706
-1.56289
1.59955
-1.69652
0.690836
-1.73206
0.0143131
-1.70855
-0.367371
-1.63965
-0.571368
-1.56868
-0.693974
-1.5024
-0.829159
-1.38632
-1.07403
-1.28335
-1.25964
-1.20165
-1.28636
-1.08026
-1.28304
-0.953539
-1.2847
-0.817782
-1.26012
-0.684206
-1.1382
-0.570575
-0.884051
-0.495069
-0.522726
-0.464169
-0.331494
-0.478824
-0.306221
-0.566965
-0.166185
-0.631604
-0.216554
-0.532548
-0.741963
-0.352042
-0.938817
-0.158955
-0.824076
-0.00279978
-0.595703
0.0805871
-0.426093
0.119802
-0.349532
0.0810888
-0.12446
-0.0622398
0.442034
-0.264468
1.04903
-0.417389
1.2885
-0.499861
1.07776
-0.510889
0.65795
-0.477743
0.22633
-0.442974
-0.0922814
-0.411722
-0.223835
-0.384903
-0.196416
-0.35445
-0.121464
-0.319904
-0.0822733
-0.303047
-0.0153487
-0.294669
0.0234826
-0.264212
-0.0720808
-0.21552
-0.139432
-0.108219
3.04592
-8.48643
2.62543
13.963
2.74904
22.7199
2.05461
19.0537
-1.80003
8.44087
-1.17918
-12.0961
5.2114
-7.23403
7.21892
13.1766
4.7865
9.06589
3.0049
-7.76928
3.121
-15.0682
3.61619
-16.7339
1.87438
-15.6548
-0.372186
0.114444
-0.00404242
2.57111
1.73424
-5.39878
3.16683
-12.6176
1.7689
-18.553
1.16055
-24.9722
2.93269
-13.4124
8.1236
-10.0812
13.0197
-3.16008
14.8259
1.94344
12.6343
15.7014
10.5688
14.0482
5.10447
-3.05019
0.723555
-1.85951
1.53285
-3.74557
4.39262
-6.15182
7.72036
-13.0809
6.17518
-12.6075
2.78706
-1.53
-0.544617
-0.000318776
-3.67971
-5.53031
-2.58853
-6.49079
1.74534
5.93704
4.83134
11.0822
3.07083
20.557
2.44716
15.9925
2.92308
4.52722
2.06485
-1.27874
1.64896
-3.06709
0.696874
-2.28846
0.279774
0.358238
-0.193064
1.17072
-0.732564
2.51148
-1.30759
4.66505
-1.34237
5.90404
-0.953494
6.75222
-0.160114
6.47491
0.597284
6.13096
0.819399
6.43391
0.616427
6.92382
0.0981909
6.836
-0.417988
5.68357
-0.844546
4.21923
-1.14615
2.89868
-1.35785
1.81136
-1.51215
0.845386
-1.57622
0.0787009
-1.56745
-0.375766
-1.51871
-0.619739
-1.46767
-0.744634
-1.39166
-0.904814
-1.29939
-1.166
-1.21246
-1.34631
-1.11804
-1.38059
-1.02861
-1.37231
-0.925821
-1.38743
-0.806628
-1.3793
-0.687807
-1.25707
-0.580263
-0.991668
-0.508182
-0.594941
-0.474709
-0.365147
-0.522319
-0.258882
-0.658259
-0.0305106
-0.733022
-0.142024
-0.643049
-0.832091
-0.433136
-1.14884
-0.230678
-1.02657
-0.0631135
-0.763246
0.0425118
-0.531648
0.0724962
-0.379436
0.021927
-0.07381
-0.142711
0.606724
-0.325454
1.2318
-0.465662
1.42871
-0.514967
1.12703
-0.496038
0.638947
-0.458895
0.189096
-0.416008
-0.135286
-0.381225
-0.258749
-0.361233
-0.216559
-0.343616
-0.139237
-0.313214
-0.11282
-0.301114
-0.0275824
-0.290037
0.0122968
-0.264921
-0.0972838
-0.223273
-0.181131
-0.128372
3.51204
-11.9935
3.68677
13.7883
3.94003
22.4666
3.69639
19.2973
0.429875
11.7073
-1.24091
-10.4254
4.17548
-12.6505
7.19252
10.1595
5.55367
10.7047
3.29697
-5.51261
3.26991
-15.0412
3.78949
-17.2535
2.42781
-14.2931
0.134947
2.40727
-0.984365
3.69038
0.531941
-6.91513
1.93661
-14.0223
1.6434
-18.2598
-0.120769
-23.2081
-6.45564
-7.07762
-8.59031
-7.9466
3.06178
-14.8123
11.1053
-6.10013
12.5959
14.2107
11.9126
14.7316
8.8151
0.0472423
6.13062
0.824956
3.13878
-0.75375
3.09866
-6.11171
5.62744
-15.6097
3.35763
-10.3377
0.339341
1.48829
1.24518
-0.906172
1.6884
-5.97355
1.48489
-6.28732
4.15213
3.26976
4.23487
10.9994
1.33261
23.4592
1.63079
15.6942
2.43373
3.72424
1.95556
-0.800612
1.62016
-2.73173
0.769111
-1.43744
0.273069
0.854249
-0.27349
1.71726
-1.15865
3.39661
-2.00895
5.51532
-2.25712
6.15217
-1.8971
6.39213
-1.01545
5.59316
-0.0437155
5.1591
0.652029
5.738
0.734098
6.84156
0.279258
7.29064
-0.241693
6.20438
-0.640523
4.61797
-0.939947
3.19813
-1.17158
2.0431
-1.32206
0.996103
-1.4
0.156956
-1.40582
-0.369584
-1.37763
-0.647562
-1.33672
-0.785177
-1.28449
-0.956715
-1.20747
-1.24273
-1.13525
-1.41826
-1.08437
-1.43126
-0.99162
-1.46491
-0.898039
-1.48096
-0.808671
-1.46865
-0.682651
-1.38316
-0.565913
-1.10849
-0.507809
-0.653184
-0.486755
-0.386381
-0.562066
-0.18384
-0.743163
0.150324
-0.835214
-0.0502
-0.728628
-0.938823
-0.514906
-1.36266
-0.29197
-1.24954
-0.109316
-0.945877
-0.00350212
-0.637392
0.0308329
-0.413693
-0.0424773
-0.000421282
-0.21112
0.775418
-0.402832
1.42354
-0.49833
1.52421
-0.505251
1.13393
-0.472457
0.606083
-0.424835
0.141387
-0.383503
-0.17673
-0.350732
-0.29165
-0.335176
-0.232265
-0.32057
-0.153996
-0.300215
-0.133318
-0.284363
-0.0435652
-0.275287
0.00311356
-0.242574
-0.130083
-0.203744
-0.220013
-0.13768
3.91497
-15.9035
4.4534
13.2499
4.84767
22.0723
4.96434
19.1806
2.87376
13.7979
-4.60839
-2.94328
-2.35821
-14.9007
5.44059
2.36067
5.53428
10.611
2.94601
-2.92437
1.97463
-14.0698
1.8276
-17.1066
2.41294
-14.8785
1.27237
3.5478
-1.51933
6.48204
-3.73864
-4.69587
-4.67273
-13.0883
-0.334504
-22.5981
1.05654
-24.5992
-0.0990373
-5.92211
3.42682
-11.4725
8.14333
-19.5289
10.1448
-8.10168
12.1209
12.2346
11.6542
15.1983
9.39338
2.30807
6.88619
3.33213
2.34542
3.78699
2.36495
-6.13125
4.18652
-17.4312
0.76533
-6.91652
0.644398
1.60922
3.27508
-3.53687
4.39649
-7.09497
4.72188
-6.61274
5.43149
2.56012
2.9831
13.4478
0.149294
26.293
1.33302
14.5104
2.04562
3.0116
1.31459
-0.0696133
0.733972
-2.15115
0.676655
-1.38015
0.867535
0.663346
0.284893
2.29988
-0.863587
4.54507
-2.18029
6.832
-2.48883
6.46065
-1.87735
5.78058
-0.914514
4.63022
0.104989
4.13947
0.7062
5.13662
0.806417
6.74113
0.468921
7.62793
-0.0291401
6.70228
-0.455971
5.04471
-0.768358
3.51053
-0.991196
2.26605
-1.12873
1.13388
-1.19957
0.228094
-1.23012
-0.338673
-1.22428
-0.653049
-1.20013
-0.808968
-1.15663
-0.999894
-1.10077
-1.2983
-1.04372
-1.47504
-0.984494
-1.49028
-0.932277
-1.51698
-0.866722
-1.54647
-0.772376
-1.56299
-0.665689
-1.48991
-0.570782
-1.20348
-0.507
-0.717112
-0.489483
-0.404079
-0.610906
-0.0626819
-0.82618
0.365339
-0.912679
0.0360786
-0.815961
-1.03568
-0.58288
-1.59583
-0.349274
-1.48318
-0.160986
-1.13414
-0.0452441
-0.753065
-0.0149688
-0.443893
-0.0948343
0.0795202
-0.277633
0.958267
-0.445581
1.59153
-0.51287
1.5915
-0.481651
1.10269
-0.437259
0.561626
-0.394906
0.0989502
-0.352401
-0.219346
-0.320549
-0.32363
-0.307425
-0.245536
-0.298436
-0.163135
-0.275353
-0.156541
-0.258313
-0.0607329
-0.238809
-0.0164959
-0.212835
-0.156143
-0.183677
-0.249224
-0.143668
4.10694
-20.0054
4.78263
12.5742
5.33443
21.5205
5.92081
18.5943
3.86671
15.852
-2.98871
3.91209
-1.75417
-16.1353
5.31307
-4.70663
4.4519
11.4721
1.32661
0.200885
-3.665
-9.07827
-6.09016
-14.6815
-0.490141
-20.4786
3.40622
-0.348627
3.97199
5.91625
4.01074
-4.73466
1.84348
-10.9211
1.28885
-22.0435
2.28559
-25.596
6.72875
-10.3653
9.37758
-14.1214
9.20458
-19.3559
10.1916
-9.08871
11.7097
10.7164
10.8907
16.0173
8.32702
4.87169
6.87872
4.78042
4.78834
5.87735
4.92099
-6.26391
2.15306
-14.6633
-0.452449
-4.31102
1.80569
-0.648919
3.5348
-5.26599
4.77389
-8.33407
5.42202
-7.2609
4.53571
3.4464
0.488554
17.4949
-0.704734
27.4862
1.14084
12.6648
1.77129
2.38112
2.24072
-0.539085
1.54769
-1.45815
0.689731
-0.522223
1.00983
0.343229
0.701394
2.60829
-0.570511
5.81695
-2.04803
8.30949
-2.40347
6.81603
-1.62896
5.006
-0.504327
3.50551
0.344351
3.29068
0.839535
4.64128
0.925288
6.65519
0.607836
7.94517
0.143166
7.16679
-0.273051
5.46083
-0.58552
3.82302
-0.798032
2.47868
-0.917147
1.25323
-1.0036
0.314837
-1.04747
-0.294462
-1.05722
-0.642942
-1.0462
-0.819633
-1.01266
-1.03311
-0.974484
-1.33618
-0.942877
-1.50637
-0.929695
-1.50327
-0.873031
-1.5735
-0.810077
-1.60938
-0.749003
-1.62407
-0.650235
-1.58876
-0.554837
-1.29898
-0.502467
-0.769634
-0.498315
-0.408412
-0.633737
0.0724805
-0.880557
0.611902
-0.978238
0.133546
-0.867335
-1.14671
-0.646451
-1.8168
-0.3979
-1.73175
-0.202934
-1.32908
-0.0881591
-0.867772
-0.0551403
-0.476838
-0.15106
0.175514
-0.311322
1.11858
-0.432652
1.71289
-0.459967
1.61882
-0.444208
1.08691
-0.403771
0.521128
-0.362274
0.0573706
-0.326716
-0.255014
-0.296981
-0.353493
-0.282908
-0.259755
-0.269662
-0.176529
-0.249457
-0.176881
-0.207467
-0.102847
-0.168601
-0.0554647
-0.158066
-0.166763
-0.155355
-0.251989
-0.143725
4.04795
-24.0484
4.72244
11.8996
5.49294
20.75
6.54612
17.5411
4.91128
17.4868
1.51881
7.30451
0.242419
-14.859
3.49453
-7.95879
2.83481
12.1318
-1.56963
4.6053
-6.29015
-4.35781
-4.20565
-16.7661
1.37286
-26.0573
7.58057
-6.55642
8.90231
4.59448
8.33831
-4.17067
5.14062
-7.72343
2.60568
-19.5086
4.2356
-27.226
9.04985
-15.1796
10.5783
-15.65
9.59284
-18.3705
9.91457
-9.41048
11.0664
9.56453
10.4794
16.6043
6.61248
8.73855
5.02318
6.36969
6.16154
4.73896
7.13685
-7.23923
1.98501
-9.51148
-1.96651
-0.359496
-0.334043
-2.28139
1.74966
-7.34969
3.6346
-10.219
4.10038
-7.7267
1.28527
6.26147
-2.67829
21.4584
-1.38386
26.1917
0.81336
10.4676
0.315636
2.87881
2.15936
-2.38284
2.6475
-1.94634
1.30937
0.81589
1.12593
0.52665
0.617738
3.11647
-0.816329
7.251
-2.05575
9.54887
-2.19842
6.95865
-1.37941
4.18693
-0.101588
2.22759
0.782375
2.40661
1.02799
4.39553
0.937178
6.74582
0.651972
8.23016
0.241317
7.57728
-0.158495
5.86054
-0.452643
4.11719
-0.621697
2.64785
-0.73686
1.36863
-0.816615
0.394872
-0.866435
-0.24431
-0.888145
-0.620882
-0.883509
-0.823925
-0.852079
-1.06422
-0.839228
-1.34875
-0.849729
-1.4956
-0.825501
-1.5273
-0.794358
-1.6045
-0.751218
-1.65248
-0.681869
-1.69343
-0.619394
-1.65132
-0.541472
-1.37701
-0.486715
-0.824546
-0.501165
-0.394141
-0.656326
0.227391
-0.923578
0.878903
-0.995824
0.205588
-0.885967
-1.25669
-0.681226
-2.02162
-0.444519
-1.96848
-0.245671
-1.5279
-0.126455
-0.98692
-0.103604
-0.499617
-0.196846
0.268829
-0.332816
1.2546
-0.41949
1.79961
-0.438865
1.63821
-0.403262
1.0513
-0.366789
0.484597
-0.337504
0.0280046
-0.304967
-0.28766
-0.275262
-0.383324
-0.259467
-0.275694
-0.244411
-0.19173
-0.204117
-0.217306
-0.152587
-0.154499
-0.107643
-0.100509
-0.0890219
-0.185468
-0.0901566
-0.250908
-0.131151
3.70596
-27.7493
4.17176
11.4338
5.13577
19.786
6.86924
15.8076
6.34222
18.0138
4.25067
9.39602
0.182895
-10.7913
0.692548
-8.46849
0.931443
11.8929
-5.6101
11.1468
-7.0721
-2.89589
-3.45336
-20.385
0.949276
-30.4601
9.17777
-14.785
10.7451
3.02713
8.76834
-2.19394
5.26903
-4.22415
2.46944
-16.7091
5.39582
-30.1524
9.77843
-19.5623
10.3925
-16.2641
9.27582
-17.2538
9.32117
-9.45586
10.468
8.41763
10.6409
16.4314
6.15945
13.22
4.75648
7.77264
8.48348
1.01194
9.60426
-8.36002
2.86984
-2.77707
-4.21903
6.72937
-2.95915
-3.54127
0.772048
-11.0809
1.81743
-11.2644
1.50969
-7.419
-3.66359
11.4347
-5.79741
23.5922
-1.26048
21.6547
0.715215
8.49182
-0.577793
4.17179
2.74197
-5.70264
3.43972
-2.64411
1.81256
2.44303
1.22661
1.11258
-0.0776647
4.42074
-1.51723
8.69054
-2.21487
10.2465
-2.14945
6.89318
-1.20969
3.2471
0.286249
0.731571
1.04169
1.65108
1.13201
4.30508
0.882514
6.99516
0.561616
8.55086
0.243619
7.89512
-0.0876295
6.19169
-0.340688
4.37027
-0.481336
2.78861
-0.573492
1.461
-0.650792
0.47244
-0.701253
-0.193526
-0.727174
-0.594614
-0.71896
-0.831797
-0.678839
-1.10402
-0.694073
-1.33322
-0.70857
-1.48081
-0.713875
-1.52179
-0.703706
-1.61453
-0.679546
-1.67661
-0.643641
-1.72934
-0.577156
-1.7179
-0.516181
-1.43809
-0.475824
-0.865061
-0.49472
-0.375421
-0.684365
0.416794
-0.947895
1.14219
-0.995745
0.253241
-0.893733
-1.35882
-0.705295
-2.21013
-0.477528
-2.19627
-0.279745
-1.72565
-0.163782
-1.10281
-0.143792
-0.519537
-0.247364
0.37247
-0.355287
1.36257
-0.413272
1.85763
-0.397111
1.62206
-0.359932
1.01411
-0.3343
0.458909
-0.312599
0.00622355
-0.287584
-0.312784
-0.259625
-0.411407
-0.239606
-0.295857
-0.216002
-0.215478
-0.174055
-0.259383
-0.0974956
-0.231174
-0.0402081
-0.157893
-0.0260479
-0.199712
-0.0265505
-0.250459
-0.128072
2.92718
-30.6715
2.88182
11.4792
4.36236
18.3054
6.90401
13.2659
7.13292
17.7849
5.65174
10.8772
2.10028
-7.23986
1.50071
-7.86897
1.66247
11.7311
-1.26206
14.0713
0.704757
-4.86276
4.70171
-24.382
6.45744
-32.2159
10.9976
-19.3251
13.5732
0.451443
8.89274
2.48654
4.12876
0.539787
1.7573
-14.3377
4.22327
-32.6184
8.03539
-23.3745
8.67561
-16.9044
8.08931
-16.6676
8.40338
-9.76997
9.72835
7.09262
10.28
15.8797
6.69307
16.8069
7.47539
6.99029
11.0962
-2.60889
9.51411
-6.77794
4.25856