/*--------------------------------*- C++ -*----------------------------------*\
| =========                 |                                                 |
| \\      /  F ield         | foam-extend: Open Source CFD                    |
|  \\    /   O peration     | Version:     5.0                                |
|   \\  /    A nd           | Web:         http://www.foam-extend.org         |
|    \\/     M anipulation  |                                                 |
\*---------------------------------------------------------------------------*/
FoamFile
{
    version     2.0;
    format      ascii;
    class       volVectorField;
    location    "0.1";
    object      U;
}
// * * * * * * * * * * * * * * * * * * * * * * * * * * * * * * * * * * * * * //

dimensions      [0 1 -1 0 0 0 0];

internalField   nonuniform List<vector> 
4000
(
(-1058.87 652.697 0)
(-2700.11 165.128 0)
(-3453.01 79.1001 0)
(-3478.19 39.2807 0)
(-3476.02 35.9552 0)
(-3531.35 17.3921 0)
(-3353.08 -63.461 0)
(-3410.54 10.61 0)
(-3970.9 397.489 0)
(-6502.93 571.79 0)
(-6995.79 -337.247 0)
(-3075.36 -397.2 0)
(-2425.63 -222.539 0)
(-1906.55 -165.124 0)
(-1476.22 128.777 0)
(-801.562 181.723 0)
(-414.495 -9.68455 0)
(500.137 46.9631 0)
(1293.93 260.176 0)
(-1173.59 228.603 0)
(-1737.33 72.5441 0)
(-1790.49 296.581 0)
(-2545.47 219.256 0)
(-2064.76 -104.9 0)
(-1477.43 -57.4015 0)
(-1166.13 -19.3948 0)
(-2619.09 -150.502 0)
(-1232.5 -253.814 0)
(1123.99 -190.892 0)
(2723.03 -131.811 0)
(3089.35 -60.7466 0)
(3138.61 -4.5933 0)
(2980.97 44.9852 0)
(2573.5 -17.6834 0)
(2579.19 -51.0066 0)
(2505.13 136.812 0)
(2015.28 172.609 0)
(1444.09 -22.5632 0)
(1335.57 -72.9774 0)
(1744.1 -46.0547 0)
(1920.2 -7.01369 0)
(1903.47 32.0505 0)
(1763.9 56.8284 0)
(1575.87 71.2745 0)
(1444.86 76.881 0)
(1063.36 77.8804 0)
(669.886 74.688 0)
(224.476 45.1269 0)
(-14.229 21.659 0)
(-154.944 -4.44773 0)
(-126.94 -11.099 0)
(-92.6202 -13.0299 0)
(-27.3124 -7.98072 0)
(-10.4632 -4.63566 0)
(7.41703 -1.47035 0)
(-7.11386 1.23423 0)
(-23.089 1.76915 0)
(-33.3519 0.994956 0)
(-47.3042 0.792274 0)
(-43.4112 0.425253 0)
(-46.3947 0.554574 0)
(-44.633 -0.264195 0)
(-40.0111 -0.688181 0)
(-31.2526 -0.837543 0)
(-26.5793 -0.931934 0)
(-19.9978 -0.0915244 0)
(-13.4005 -0.0295085 0)
(-10.96 -0.174041 0)
(-6.47298 -0.415468 0)
(0.284879 -0.596643 0)
(4.46067 -0.105158 0)
(3.39635 0.411856 0)
(2.42997 0.35365 0)
(2.47918 -0.124416 0)
(5.03395 -0.62466 0)
(11.9038 -0.928262 0)
(20.1152 -0.925999 0)
(26.061 -0.553948 0)
(28.1334 0.233024 0)
(26.2024 0.595095 0)
(22.1217 0.299245 0)
(20.2544 0.36889 0)
(18.4797 0.197269 0)
(20.8188 -0.42854 0)
(26.0392 -0.753107 0)
(28.5535 -0.418343 0)
(26.2042 0.311981 0)
(21.1439 0.718884 0)
(15.1081 0.519124 0)
(11.6664 0.41312 0)
(7.9402 0.117783 0)
(8.21298 0.0227612 0)
(8.34012 0.629001 0)
(2.44515 0.538322 0)
(0.729925 0.00218404 0)
(0.681729 -0.100317 0)
(1.83684 -0.0378764 0)
(1.24837 0.168358 0)
(-3.3579 0.735972 0)
(-3.89509 0.30053 0)
(194.193 934.454 0)
(-890.239 114.628 0)
(-1139.88 40.038 0)
(-869.22 3.20864 0)
(-1118.76 20.7953 0)
(-1248.11 91.2092 0)
(-2670.58 69.544 0)
(-3742.1 106.157 0)
(-5554.74 333.962 0)
(-1856.7 26.1396 0)
(-1640.03 -676.883 0)
(-181.718 -598.153 0)
(1063.78 -187.623 0)
(1416.96 -76.0503 0)
(1787.81 -166.439 0)
(2554.98 -205.414 0)
(2527.92 -77.7304 0)
(2574.3 -56.8139 0)
(1961.71 192.818 0)
(2427.77 436.296 0)
(1576.28 236.969 0)
(-229.605 22.1929 0)
(699.962 -141.833 0)
(1175.79 -88.367 0)
(2028.79 -0.00635606 0)
(933.952 258.176 0)
(1.00706 208.805 0)
(-618.786 -487.77 0)
(-1723.36 -744.558 0)
(-262.406 -380.846 0)
(-830.198 -47.6416 0)
(692.97 -42.1619 0)
(2016.86 3.75702 0)
(3494.94 -51.1264 0)
(4176.1 -40.6774 0)
(4392.89 46.3355 0)
(3629.97 177.232 0)
(3158.79 119.237 0)
(2886.9 -12.9728 0)
(2751.45 -81.7849 0)
(2732.97 13.0148 0)
(2476.26 60.2248 0)
(2338.96 25.9608 0)
(2436.74 47.9582 0)
(2310.62 82.9575 0)
(2093.39 165.954 0)
(1600.98 185.403 0)
(1080.58 159.14 0)
(571.413 97.6071 0)
(277.921 42.6531 0)
(86.8073 0.617092 0)
(59.9302 -12.9476 0)
(28.1883 -11.37 0)
(21.8579 -4.27224 0)
(-19.7506 1.29623 0)
(-48.7642 6.64228 0)
(-95.094 7.0137 0)
(-113.946 5.41873 0)
(-144.558 2.58943 0)
(-140.456 0.0884647 0)
(-147.394 -0.272379 0)
(-132.076 -1.60136 0)
(-128.253 -2.72633 0)
(-107.296 -3.13409 0)
(-104.628 -3.52637 0)
(-81.0435 -3.41998 0)
(-60.7193 -2.32436 0)
(-47.8335 -2.15677 0)
(-33.3595 -2.37138 0)
(-21.0685 -2.71698 0)
(-8.33159 -1.29422 0)
(-4.93531 0.309828 0)
(-2.01414 0.345633 0)
(1.07857 -1.05544 0)
(9.17855 -2.54125 0)
(23.4329 -3.37989 0)
(37.8577 -3.21616 0)
(47.4589 -1.92115 0)
(52.9331 0.176248 0)
(53.1128 1.49737 0)
(47.8035 1.15766 0)
(44.601 0.73576 0)
(46.1279 -0.184314 0)
(52.043 -1.58614 0)
(60.8543 -1.83478 0)
(62.1729 -0.618002 0)
(57.2801 1.85388 0)
(47.9928 2.85196 0)
(30.5105 2.24567 0)
(24.8324 1.79422 0)
(13.846 0.821601 0)
(12.6378 0.0353384 0)
(14.4908 1.43184 0)
(8.78225 1.66797 0)
(3.1854 0.486558 0)
(0.0434518 0.0308861 0)
(0.101308 0.168836 0)
(-2.88337 0.600303 0)
(-12.5981 1.67905 0)
(-9.79955 0.469322 0)
(941.51 982.694 0)
(-35.5806 58.8129 0)
(-346.894 99.6181 0)
(-606.893 54.7786 0)
(-873.508 54.8767 0)
(-657.66 324.045 0)
(-2470.99 386.144 0)
(-2654.49 396.418 0)
(-3774.3 491.764 0)
(-1510.44 -371.343 0)
(465.316 -997.54 0)
(1110.64 -889.67 0)
(1508.43 -383.41 0)
(1095.78 -128.704 0)
(695.738 -324.221 0)
(1352.94 -384.373 0)
(1923.14 -160.827 0)
(1864.12 -62.4469 0)
(2249.8 231.086 0)
(2395.05 359.701 0)
(2325.95 399.114 0)
(1824.26 595.873 0)
(-619.109 179.706 0)
(-3379.49 -476.144 0)
(-117.362 -367.28 0)
(1441.62 313.145 0)
(1445.41 400.554 0)
(1596.72 -83.0495 0)
(131.168 -521.228 0)
(-1417.81 -369.5 0)
(19.6363 -330.582 0)
(1194.15 -561.078 0)
(2789.99 -556.946 0)
(3896.24 -386.856 0)
(4271.54 -211.011 0)
(3390.31 235.447 0)
(2828.16 372.421 0)
(2306.63 203.956 0)
(1677.98 93.65 0)
(1141.68 117.853 0)
(1086.04 31.5894 0)
(963.486 66.0369 0)
(928.04 34.5769 0)
(1235.84 -4.76568 0)
(1807.36 40.8844 0)
(2042.37 130.494 0)
(1817.27 253.557 0)
(1407.28 263.276 0)
(994.32 196.793 0)
(602.429 107.604 0)
(369.821 40.061 0)
(211.445 4.67866 0)
(135.333 4.1993 0)
(33.1657 10.3951 0)
(-43.832 16.8968 0)
(-128.97 21.5238 0)
(-189.604 17.5829 0)
(-220.904 11.5895 0)
(-242.416 5.51533 0)
(-238.451 0.739115 0)
(-241.944 -1.33164 0)
(-225.219 -4.73055 0)
(-212.639 -6.07982 0)
(-195.633 -6.62206 0)
(-185.592 -8.27819 0)
(-160.476 -8.94114 0)
(-128.472 -7.95655 0)
(-99.1457 -7.13426 0)
(-80.3827 -6.8814 0)
(-51.7454 -7.31685 0)
(-35.9348 -4.27945 0)
(-21.5096 -1.05769 0)
(-15.0609 -0.282005 0)
(-10.5841 -2.60486 0)
(-2.35894 -5.85157 0)
(14.3956 -7.30932 0)
(26.1263 -6.70553 0)
(39.6286 -4.5703 0)
(46.1881 -1.17569 0)
(58.9523 1.54743 0)
(55.0928 2.25289 0)
(48.0386 0.40021 0)
(63.582 -1.55983 0)
(66.34 -3.15256 0)
(75.2032 -3.21599 0)
(72.5451 -0.0482016 0)
(61.4768 5.07394 0)
(39.2475 6.95126 0)
(26.4098 5.37106 0)
(11.6895 4.25261 0)
(4.42571 2.20049 0)
(-1.0353 0.160913 0)
(3.44333 1.70877 0)
(5.79771 2.68189 0)
(1.02272 1.59829 0)
(-4.56809 0.84432 0)
(-7.3293 0.990974 0)
(-11.7687 1.56775 0)
(-18.9519 2.93265 0)
(-14.0021 0.688415 0)
(1352.14 915.27 0)
(363.135 82.6429 0)
(-50.7086 218.672 0)
(-538.131 115.637 0)
(-578.207 87.5365 0)
(-373.964 486.288 0)
(-1196.87 525.411 0)
(-1434.82 439.012 0)
(-2148.47 301.267 0)
(-1167.09 -552.527 0)
(380.4 -1393.47 0)
(1572.98 -1076.64 0)
(122.372 -203.712 0)
(-1287.83 106.248 0)
(-718.839 -588.753 0)
(-163.792 -669.688 0)
(480.174 -340.152 0)
(588.3 -207.328 0)
(903.485 103.221 0)
(2388.44 312.999 0)
(2714.7 512.136 0)
(1803.44 777.522 0)
(1068.64 569.283 0)
(965.6 -425.727 0)
(-548.978 -803.231 0)
(2186.83 118.847 0)
(476.549 148.185 0)
(2923.49 -90.3964 0)
(2365.8 -128.804 0)
(-21.6424 -328.194 0)
(1692.63 -657.191 0)
(3051.99 -815.377 0)
(4087.08 -681.868 0)
(3752.96 -269.672 0)
(3343.39 19.9266 0)
(1814.17 592.234 0)
(1479.25 526.73 0)
(419.86 315.559 0)
(-42.3251 96.1823 0)
(176.404 26.9106 0)
(413.384 15.2051 0)
(879.065 16.5522 0)
(1123.61 -55.3085 0)
(1201 -89.4082 0)
(1354.21 -28.0079 0)
(1462.29 199.972 0)
(1729.53 315.117 0)
(1575.4 340.142 0)
(1216.62 290.691 0)
(859.893 194.619 0)
(541.462 96.8834 0)
(350.065 42.8632 0)
(180.496 35.5123 0)
(48.0571 39.5864 0)
(-90.0761 41.7619 0)
(-186.112 40.94 0)
(-256.618 30.7809 0)
(-299.75 18.9484 0)
(-320.195 7.50352 0)
(-317.916 0.45425 0)
(-319.573 -2.56105 0)
(-304.703 -8.12666 0)
(-295.615 -10.25 0)
(-267.344 -10.8 0)
(-261.509 -12.8674 0)
(-230.503 -16.841 0)
(-186.805 -16.88 0)
(-161.468 -14.7738 0)
(-124.425 -14.3829 0)
(-87.1884 -14.2568 0)
(-61.1472 -9.01418 0)
(-47.8501 -4.12177 0)
(-31.9635 -1.95904 0)
(-26.369 -4.39199 0)
(-19.7362 -8.84733 0)
(-5.11343 -10.5662 0)
(4.40303 -9.70434 0)
(14.1148 -8.0595 0)
(35.1878 -4.01737 0)
(39.9483 0.248591 0)
(54.8931 2.17003 0)
(47.6843 -0.891384 0)
(65.6383 -3.66625 0)
(67.7325 -4.7145 0)
(78.9342 -3.80924 0)
(68.6481 2.54234 0)
(48.1842 10.0468 0)
(26.6715 12.2868 0)
(0.78807 9.43813 0)
(-11.3391 7.10772 0)
(-18.42 3.64314 0)
(-20.6895 0.0307226 0)
(-15.4569 0.828891 0)
(-9.83427 2.57949 0)
(-10.9486 2.45824 0)
(-15.7772 1.94178 0)
(-18.1756 2.07717 0)
(-21.4889 2.19428 0)
(-27.946 3.39453 0)
(-20.6788 0.36355 0)
(1626.06 767.78 0)
(532.957 132.34 0)
(13.1222 378.03 0)
(-551.488 216.925 0)
(-758.882 5.83396 0)
(-295.485 505.425 0)
(-148.842 653.691 0)
(-856.189 522.849 0)
(-952.71 268.758 0)
(-249.156 -740.749 0)
(-179.301 -1708.78 0)
(-242.953 -1231.45 0)
(206.893 -385.366 0)
(1560.76 299.629 0)
(1549.84 -79.8693 0)
(-1537.27 -754.086 0)
(666.243 -467.341 0)
(609.069 -169.861 0)
(446.699 -101.119 0)
(2013.81 50.8044 0)
(2778.59 462.207 0)
(2770.5 978.555 0)
(1976.06 598.507 0)
(2002 -290.381 0)
(960.278 -974.557 0)
(3336.53 -25.6543 0)
(2668.77 206.57 0)
(3642.19 -165.7 0)
(3610.65 -31.1648 0)
(2662.55 -239.308 0)
(2630.91 -910.441 0)
(3483.02 -1145.34 0)
(4163.6 -781.489 0)
(3489.68 -355.611 0)
(1555.24 339.259 0)
(2331.79 698.463 0)
(1575.27 698.299 0)
(645.413 443.999 0)
(-55.0317 98.6099 0)
(-24.4627 25.0425 0)
(665.145 -111.778 0)
(999.622 -73.5216 0)
(1194.11 -67.8011 0)
(952.385 -24.9039 0)
(839.04 16.9117 0)
(1211.38 79.7103 0)
(1415.73 288.206 0)
(1453.87 396.572 0)
(1297.62 360.285 0)
(984.595 270.63 0)
(686.13 164.55 0)
(416.744 95.0396 0)
(224.59 79.658 0)
(35.4125 79.1671 0)
(-114.181 75.1214 0)
(-229.323 64.7285 0)
(-297.273 46.7671 0)
(-351.114 26.9313 0)
(-365.132 10.4943 0)
(-374.771 -0.0874491 0)
(-363.864 -4.52687 0)
(-358.598 -10.7409 0)
(-339.615 -14.4553 0)
(-325.639 -15.5572 0)
(-296.683 -19.6419 0)
(-274.992 -24.9749 0)
(-231.946 -25.8662 0)
(-191.339 -23.3091 0)
(-150.299 -23.3457 0)
(-116.982 -22.3378 0)
(-96.6087 -14.9952 0)
(-64.6031 -8.48653 0)
(-52.4651 -4.62658 0)
(-42.182 -6.09173 0)
(-37.2952 -11.2768 0)
(-26.9142 -13.1601 0)
(-21.1319 -12.4364 0)
(-6.68704 -12.0312 0)
(9.09772 -7.82115 0)
(32.3697 -2.99422 0)
(36.3143 0.457835 0)
(50.7123 -2.59038 0)
(55.5041 -6.06749 0)
(69.1315 -6.43332 0)
(70.0318 -3.20293 0)
(57.042 6.27097 0)
(32.0175 16.5093 0)
(-1.02302 18.7575 0)
(-20.5218 14.8375 0)
(-47.3394 9.84079 0)
(-43.9774 3.80125 0)
(-44.9419 -1.02672 0)
(-33.3091 -0.850301 0)
(-27.1546 1.79791 0)
(-26.147 2.82667 0)
(-29.0087 2.72376 0)
(-29.5826 2.96571 0)
(-32.3155 2.58757 0)
(-38.6896 3.50126 0)
(-28.4185 0.248353 0)
(1825.78 588.552 0)
(583.403 201.354 0)
(-4.9623 559.815 0)
(-499.179 377.86 0)
(-1255.92 -24.8672 0)
(-646.489 404.858 0)
(431.898 639.546 0)
(-224.553 579.349 0)
(-407.533 184.444 0)
(276.12 -703.413 0)
(-391.226 -1550.19 0)
(-1288.77 -1093.95 0)
(-1121 -643.261 0)
(1329.11 100.22 0)
(1189.99 53.7352 0)
(-46.7241 -486.889 0)
(-545.626 -542.42 0)
(-418.401 -187.685 0)
(608.834 -284.011 0)
(1473.78 -213.298 0)
(2271.48 310.523 0)
(2761.96 1034.87 0)
(2588.05 809.17 0)
(2151.04 -197.763 0)
(879.282 -1165.52 0)
(3704.5 -233.5 0)
(3747.63 327.269 0)
(2396.68 -173.761 0)
(3121.26 -49.473 0)
(3697.28 -162.845 0)
(3630.1 -717.588 0)
(3307.58 -1002.73 0)
(1916.15 -571.603 0)
(2015.36 24.6706 0)
(489.911 427.47 0)
(2529.34 586.876 0)
(1678.29 936.2 0)
(934.589 744.152 0)
(-25.3089 244.66 0)
(-313.693 -129.092 0)
(617.906 -255.294 0)
(903.442 -132.909 0)
(1130.39 -73.7226 0)
(1002.82 -24.5857 0)
(826.819 -3.47324 0)
(650.44 69.3068 0)
(977.647 250.147 0)
(1271.19 383.457 0)
(1195.18 411.526 0)
(992.291 340.313 0)
(760.26 231.605 0)
(463.625 156.024 0)
(246.933 133.743 0)
(25.5299 123.307 0)
(-138.403 107.83 0)
(-255.171 86.8224 0)
(-322.01 59.9935 0)
(-376.399 35.136 0)
(-386.77 13.1684 0)
(-397.124 0.0280319 0)
(-388.655 -6.43777 0)
(-372.939 -14.0616 0)
(-367.775 -18.2404 0)
(-340.184 -21.3665 0)
(-327.42 -26.0658 0)
(-294.388 -33.4598 0)
(-249.691 -36.0103 0)
(-223.666 -33.6092 0)
(-178.328 -32.9885 0)
(-157.847 -29.9002 0)
(-124.529 -22.6246 0)
(-85.3555 -14.936 0)
(-66.7022 -7.27748 0)
(-59.0858 -8.08063 0)
(-55.1587 -13.0088 0)
(-45.731 -14.9563 0)
(-41.6438 -14.6271 0)
(-34.5745 -16.4244 0)
(-6.11805 -13.0371 0)
(8.18142 -6.42329 0)
(32.5784 -2.75906 0)
(36.6891 -5.43799 0)
(54.109 -8.22485 0)
(58.695 -7.8339 0)
(63.3717 -1.34025 0)
(40.8541 12.1624 0)
(7.50545 24.5153 0)
(-23.0912 26.3906 0)
(-56.4305 20.823 0)
(-72.8042 11.6801 0)
(-63.7414 3.15087 0)
(-65.2672 -2.55895 0)
(-51.4089 -3.08101 0)
(-42.9523 0.672923 0)
(-41.1481 2.73848 0)
(-42.8964 2.90888 0)
(-40.0846 3.42769 0)
(-41.2823 2.73101 0)
(-45.9628 2.99307 0)
(-30.5454 -0.295383 0)
(2010.73 377.979 0)
(508.316 290.29 0)
(-146.131 743.415 0)
(-448.451 577.801 0)
(-1550.05 -19.6598 0)
(-782.386 175.935 0)
(641.792 573.403 0)
(-36.7326 677.397 0)
(-310.58 131.153 0)
(595.505 -647.034 0)
(-366.332 -1313.3 0)
(-2108.05 -1072.61 0)
(-2742.27 -902.629 0)
(147.317 -59.3518 0)
(28.3209 -17.7944 0)
(-453.168 -348.069 0)
(-681.625 -439.467 0)
(49.7829 -289.391 0)
(-153.449 -396.514 0)
(715.71 -422.381 0)
(1565.36 121.258 0)
(2183.6 999.097 0)
(3004.03 831.391 0)
(2901.81 -23.2248 0)
(987.692 -1161.84 0)
(1919.87 -682.706 0)
(3426.99 349.962 0)
(2252.48 -166.5 0)
(2294.82 -56.3194 0)
(1706.27 -257.256 0)
(1682.99 -884.215 0)
(2017.98 -1114.56 0)
(290.264 -337.323 0)
(338.002 164.162 0)
(1466.52 211.316 0)
(2472.48 495.336 0)
(2025.27 1048.33 0)
(1677.84 911.526 0)
(929.679 490.856 0)
(63.0712 51.6493 0)
(328.367 -354.685 0)
(476.994 -165.426 0)
(914.932 -93.3522 0)
(794.646 6.80769 0)
(778.246 34.9967 0)
(690.671 44.232 0)
(645.357 185.057 0)
(836.38 356.318 0)
(1017.05 419.567 0)
(917.647 381.62 0)
(720.846 296.425 0)
(480.174 217.91 0)
(237.801 190.655 0)
(33.8359 175.499 0)
(-142.447 143.925 0)
(-252.832 111.41 0)
(-318.893 77.3095 0)
(-381.618 42.9689 0)
(-392.97 14.6977 0)
(-403.052 -1.89485 0)
(-391.108 -9.62025 0)
(-375.206 -16.7156 0)
(-369.574 -22.3851 0)
(-342.409 -26.8934 0)
(-327.558 -32.4835 0)
(-292.219 -42.1323 0)
(-266.415 -44.1329 0)
(-231.74 -41.2867 0)
(-203.986 -40.294 0)
(-172.41 -37.3308 0)
(-134.093 -31.3794 0)
(-109.561 -21.686 0)
(-84.0221 -11.2551 0)
(-70.9911 -9.80105 0)
(-67.7644 -14.5323 0)
(-60.642 -15.9342 0)
(-64.9509 -16.1227 0)
(-54.4123 -20.941 0)
(-32.6064 -18.7555 0)
(-0.219733 -12.0142 0)
(13.3268 -6.85078 0)
(35.6736 -8.45099 0)
(41.7206 -10.7477 0)
(55.0367 -8.97035 0)
(49.804 1.11605 0)
(21.7655 19.2731 0)
(-13.8136 33.8308 0)
(-53.6079 34.2666 0)
(-76.0315 25.1628 0)
(-81.5922 13.291 0)
(-84.9164 1.90806 0)
(-74.5009 -4.95862 0)
(-63.9912 -5.40627 0)
(-60.4173 -0.713796 0)
(-54.2928 2.10765 0)
(-53.0383 2.54581 0)
(-48.7263 3.23334 0)
(-46.0079 1.95817 0)
(-47.1937 1.52253 0)
(-28.2854 -1.20845 0)
(2193.71 154.858 0)
(281.957 427.393 0)
(-372.594 943.634 0)
(-355.352 735.329 0)
(-1346.21 -38.3371 0)
(-537.945 -121.163 0)
(758.064 493.475 0)
(400.651 771.51 0)
(-137.36 90.5955 0)
(593.405 -612.715 0)
(-254.408 -982.031 0)
(-1305.09 -838.575 0)
(-1973.89 -1038.25 0)
(-981.442 -228.142 0)
(-378.306 153.592 0)
(-2428.76 -424.954 0)
(-2153.98 -710.444 0)
(-859.788 -468.436 0)
(-599.179 -632.438 0)
(1001.63 -705.07 0)
(672.696 -243.588 0)
(1361.05 829.959 0)
(3048.96 724.139 0)
(2818.08 365.09 0)
(1151.17 -813.356 0)
(-975.404 -992.833 0)
(2200.29 159.542 0)
(2243.7 135.833 0)
(566.312 56.7999 0)
(306.441 -310.817 0)
(426.012 -987.716 0)
(266.496 -522.3 0)
(-30.777 -264.189 0)
(413.269 -215.935 0)
(1923.05 -67.0924 0)
(1959.03 490.286 0)
(1842.76 1114.24 0)
(2018.31 969.518 0)
(1591.65 568.811 0)
(880.783 118.438 0)
(460.176 -357.634 0)
(52.2671 -221.986 0)
(750.512 -159.599 0)
(456.224 15.6318 0)
(664.981 42.571 0)
(559.658 65.1851 0)
(541.386 176.533 0)
(598.57 317.356 0)
(625.638 411.079 0)
(729.796 404.246 0)
(630.712 329.698 0)
(431.834 278.357 0)
(235.911 245.6 0)
(36.7123 219.095 0)
(-121.871 180.524 0)
(-241.084 132.856 0)
(-304.156 92.6733 0)
(-360.739 53.8371 0)
(-380.973 20.0438 0)
(-400.051 -0.67663 0)
(-380.52 -12.7444 0)
(-369.144 -20.0528 0)
(-352.963 -26.2235 0)
(-340.597 -31.7565 0)
(-316.464 -39.0289 0)
(-294.837 -48.9775 0)
(-262.241 -51.3897 0)
(-240.665 -48.7541 0)
(-205.726 -48.2145 0)
(-183.14 -46.071 0)
(-153.272 -39.5124 0)
(-122.674 -27.8968 0)
(-91.9241 -15.6417 0)
(-82.2213 -12.1017 0)
(-79.7749 -15.5445 0)
(-74.9408 -15.89 0)
(-83.1268 -16.102 0)
(-81.6675 -25.4049 0)
(-47.1567 -25.7374 0)
(-23.8648 -18.1754 0)
(12.6751 -11.9533 0)
(21.5475 -12.1432 0)
(39.4795 -12.6872 0)
(42.6678 -9.4666 0)
(37.5849 5.98881 0)
(1.80995 27.9426 0)
(-38.6635 43.0434 0)
(-67.6383 41.6679 0)
(-89.4968 29.178 0)
(-98.096 13.7414 0)
(-90.7909 0.459592 0)
(-85.9068 -7.18398 0)
(-76.3796 -6.91548 0)
(-71.3344 -2.17585 0)
(-62.865 0.634561 0)
(-58.1893 1.52525 0)
(-54.4648 2.61389 0)
(-48.8295 0.503371 0)
(-49.2271 -0.767852 0)
(-27.8776 -2.37322 0)
(2291.35 -19.8981 0)
(38.6262 554.18 0)
(-93.8876 1079.99 0)
(-8.28418 819.828 0)
(-770.073 -16.6375 0)
(-670.862 -374.818 0)
(670.339 384.605 0)
(916.27 821.012 0)
(219.492 148.582 0)
(447.096 -579.638 0)
(-11.6695 -756.494 0)
(-239.532 -784.194 0)
(-712.171 -1005.92 0)
(-1079.68 -284.511 0)
(-607.939 224.697 0)
(-1083.22 -166.709 0)
(-1970.51 -667.923 0)
(-1967.12 -784.669 0)
(829.721 -871.299 0)
(1795.34 -698.047 0)
(-56.5051 -296.851 0)
(1443.45 399.229 0)
(3147.77 490.525 0)
(2616.12 330.728 0)
(2585.69 -160.916 0)
(-2467.68 -886.877 0)
(996.063 -104.146 0)
(-173.924 14.3413 0)
(448.566 269.682 0)
(1417.82 -181.794 0)
(826.1 -749.818 0)
(-523.812 -548.672 0)
(-548.854 -397.123 0)
(227.653 -503.56 0)
(1238.72 -263.447 0)
(637.952 562.216 0)
(1141.24 1066.43 0)
(1742.84 957.263 0)
(1371.56 676.543 0)
(1108.86 183.248 0)
(665.477 -286.088 0)
(5.34813 -213.038 0)
(404.831 -191.445 0)
(171.988 14.5978 0)
(376.393 31.43 0)
(385.244 70.8537 0)
(246.518 186.352 0)
(300.906 305.844 0)
(402.683 383.61 0)
(408.524 399.466 0)
(449.988 367.028 0)
(362.569 312.148 0)
(209.388 292.776 0)
(52.7335 265.442 0)
(-100.399 212.088 0)
(-209.653 156.83 0)
(-280.134 106.882 0)
(-333.848 63.0752 0)
(-360.485 24.1177 0)
(-382.743 -1.59017 0)
(-365.214 -15.7694 0)
(-354.075 -23.8161 0)
(-341.265 -29.3054 0)
(-322.953 -36.3469 0)
(-309.322 -44.972 0)
(-277.163 -54.738 0)
(-263.49 -57.4259 0)
(-231.486 -55.1443 0)
(-209.283 -54.644 0)
(-179.285 -52.591 0)
(-155.764 -46.4828 0)
(-122.757 -35.4873 0)
(-100.799 -20.3986 0)
(-88.33 -13.9964 0)
(-86.3156 -16.2206 0)
(-86.3373 -14.4186 0)
(-105.336 -15.3212 0)
(-101.642 -29.761 0)
(-73.2296 -33.3244 0)
(-32.1257 -26.6688 0)
(2.74676 -18.3384 0)
(21.7009 -15.2713 0)
(28.0976 -15.0792 0)
(36.7559 -8.65701 0)
(21.7271 11.3888 0)
(-17.7192 37.4787 0)
(-54.1412 52.7177 0)
(-88.2923 47.3602 0)
(-96.1918 31.9778 0)
(-103.842 13.6127 0)
(-88.9943 -1.5966 0)
(-83.9573 -8.87116 0)
(-76.3561 -8.15423 0)
(-76.3574 -3.81055 0)
(-64.9508 -1.34323 0)
(-61.079 0.536161 0)
(-57.0779 1.95676 0)
(-52.5848 -1.27843 0)
(-52.9636 -3.22581 0)
(-29.9725 -3.56488 0)
(2316.53 -204.701 0)
(-232.975 650.176 0)
(251.718 1131.57 0)
(325.424 895.283 0)
(-239.404 136.887 0)
(-1166.28 -553.42 0)
(351.082 136.029 0)
(1396.35 785.193 0)
(800.869 278.347 0)
(604.04 -505.822 0)
(388.373 -701.252 0)
(493.808 -794.454 0)
(92.6203 -919.444 0)
(-309.334 -171.247 0)
(-33.5363 157.939 0)
(-237.718 -122.202 0)
(99.9142 -519.91 0)
(-339.632 -898.526 0)
(752.47 -1117.18 0)
(1768.25 -600.737 0)
(482.3 -251.47 0)
(1392.24 274.713 0)
(3169.63 336.187 0)
(3075.19 579.063 0)
(1292.25 399.384 0)
(-2497.05 -566.831 0)
(228.356 -259.178 0)
(-1921.94 -155.024 0)
(538.279 62.1118 0)
(1645.77 -396.918 0)
(1522.68 -717.316 0)
(1287.81 -294.825 0)
(570.794 -309.575 0)
(-638.397 -488.781 0)
(-501.657 -280.084 0)
(-692.368 606.799 0)
(590.104 853.787 0)
(1058.75 956.457 0)
(512.602 795.602 0)
(639.748 282.253 0)
(501.105 -115.898 0)
(163.819 -187.122 0)
(381.618 -178.683 0)
(62.7208 -15.0094 0)
(174.136 26.7669 0)
(119.194 84.5826 0)
(-16.6893 190.533 0)
(11.8222 299.71 0)
(68.6417 367.2 0)
(185.016 375.767 0)
(241.037 353.84 0)
(258.154 338.672 0)
(187.536 323.946 0)
(57.6506 300.697 0)
(-65.6108 244.823 0)
(-176.391 178.75 0)
(-243.102 123.53 0)
(-294.409 74.4577 0)
(-328.63 31.0036 0)
(-349.291 -0.797877 0)
(-344.855 -18.1163 0)
(-337.093 -26.9065 0)
(-319.154 -33.3328 0)
(-306.334 -39.9702 0)
(-294.152 -51.0646 0)
(-260.995 -61.1065 0)
(-254.056 -62.7229 0)
(-228.472 -61.2387 0)
(-201.698 -61.529 0)
(-177.775 -60.0121 0)
(-150.196 -53.6682 0)
(-126.041 -41.3457 0)
(-102.403 -24.4748 0)
(-93.6674 -15.8479 0)
(-92.7058 -16.0286 0)
(-98.8383 -11.0277 0)
(-124.727 -12.4535 0)
(-128.047 -34.6706 0)
(-87.5938 -42.0525 0)
(-54.5284 -36.1335 0)
(-8.26386 -25.7587 0)
(6.9636 -19.3687 0)
(24.3371 -16.2803 0)
(25.4537 -7.40329 0)
(8.53255 18.2231 0)
(-34.8158 47.714 0)
(-72.513 60.5483 0)
(-93.3887 52.3142 0)
(-105.941 32.8355 0)
(-98.8274 12.4637 0)
(-91.998 -3.52527 0)
(-85.7059 -10.4526 0)
(-79.2483 -9.22464 0)
(-73.8882 -5.4095 0)
(-67.5298 -3.3088 0)
(-61.3103 -0.435248 0)
(-59.6631 1.34513 0)
(-54.4808 -2.79828 0)
(-56.4705 -5.84217 0)
(-33.121 -4.84797 0)
(2292.97 -347.273 0)
(-217.805 701.781 0)
(544.881 1140.58 0)
(713.308 942.683 0)
(266.931 316.538 0)
(-944.737 -651.917 0)
(363.19 -201.561 0)
(1591.65 705.902 0)
(1243.63 393.774 0)
(801.862 -429.742 0)
(583.147 -735.578 0)
(648.168 -817.512 0)
(595.753 -836.831 0)
(-73.16 -55.1055 0)
(264.78 131.655 0)
(-123.532 -211.197 0)
(595.548 -558.551 0)
(683.106 -931.038 0)
(-204.413 -1328.92 0)
(902.952 -613.648 0)
(413.452 -272.09 0)
(2376.11 83.4092 0)
(3067.06 99.4505 0)
(2942.68 742.199 0)
(2297.34 642.514 0)
(1525.7 -219.405 0)
(711.912 -306.142 0)
(-324.138 -238.3 0)
(607.4 -224.225 0)
(1537.6 -568.443 0)
(1545.76 -667.653 0)
(628.434 -185.435 0)
(500.499 -72.1688 0)
(-533.734 -340.973 0)
(-1044.39 -290.059 0)
(-141.994 417.647 0)
(1024.73 592.942 0)
(966.825 927.211 0)
(321.047 761.563 0)
(624.655 225.955 0)
(510.622 -83.3435 0)
(292.532 -162.955 0)
(356.217 -134.981 0)
(1.67167 -4.21872 0)
(9.01478 43.0111 0)
(-74.6754 108.014 0)
(-225.191 216.714 0)
(-300.894 294.86 0)
(-215.893 349.884 0)
(-131.278 349.079 0)
(77.9421 330.698 0)
(147.23 330.718 0)
(158.92 347.693 0)
(76.1869 328.887 0)
(-34.0467 273.529 0)
(-131.336 201.04 0)
(-206.847 135.717 0)
(-253.527 84.5439 0)
(-287.775 38.3369 0)
(-316.172 2.32055 0)
(-315.156 -18.751 0)
(-310.801 -29.9859 0)
(-297.277 -36.0926 0)
(-288.118 -43.4486 0)
(-267.74 -56.2926 0)
(-252.106 -65.011 0)
(-235.192 -66.6464 0)
(-213.547 -66.6057 0)
(-196.35 -66.7677 0)
(-171.869 -65.8895 0)
(-151.316 -59.9553 0)
(-126.44 -46.8814 0)
(-106.058 -27.6048 0)
(-95.205 -17.5665 0)
(-95.7083 -14.5438 0)
(-113.7 -5.36686 0)
(-145.481 -9.08012 0)
(-147.773 -39.2273 0)
(-112.363 -51.9318 0)
(-62.3244 -46.0846 0)
(-29.0133 -33.8376 0)
(3.41874 -23.6332 0)
(13.0295 -18.3708 0)
(17.8679 -5.1344 0)
(-7.58635 26.0648 0)
(-51.4081 56.4864 0)
(-80.0431 68.39 0)
(-104.996 55.5387 0)
(-100.617 32.809 0)
(-97.9346 10.4707 0)
(-85.5148 -5.7732 0)
(-81.5299 -12.0426 0)
(-70.9713 -10.2893 0)
(-72.6899 -6.58442 0)
(-64.4638 -5.00223 0)
(-61.9502 -1.0799 0)
(-58.0567 0.928375 0)
(-54.2238 -4.24355 0)
(-56.8612 -8.01129 0)
(-35.8084 -5.95053 0)
(2264.01 -504.081 0)
(-27.7451 698.072 0)
(782.877 1130.33 0)
(953.876 959.477 0)
(702.875 528.25 0)
(-537.523 -682.714 0)
(54.4385 -500.799 0)
(1359.87 601.85 0)
(1482.76 502.64 0)
(935.527 -323.591 0)
(578.736 -741.689 0)
(616.5 -841.411 0)
(681.388 -751.328 0)
(114.752 55.1424 0)
(298.524 142.779 0)
(-525.167 -293.482 0)
(467.324 -658.235 0)
(351.345 -892.485 0)
(-85.6301 -1281.89 0)
(475.495 -521.815 0)
(-3046.27 -510.94 0)
(-747.449 -563.762 0)
(2093.99 -167.269 0)
(2507.3 774.981 0)
(2710.71 724.022 0)
(1733.72 -106.809 0)
(1901.06 -42.8953 0)
(623.324 -124.627 0)
(349.696 -372.155 0)
(1262.65 -740.308 0)
(1007.75 -580.245 0)
(20.0853 17.3626 0)
(88.2594 19.5656 0)
(637.03 -272.816 0)
(-69.878 -322.207 0)
(578.795 211.664 0)
(1201.43 514.563 0)
(533.761 1101.5 0)
(71.1402 815.461 0)
(535.192 208.547 0)
(426.284 -45.9693 0)
(325.229 -148.285 0)
(317.133 -92.2357 0)
(41.2493 40.6888 0)
(-3.36754 71.1681 0)
(-103.252 141.272 0)
(-363.612 252.989 0)
(-446.319 297.571 0)
(-435.755 333.665 0)
(-287.64 304.726 0)
(-102.963 286.916 0)
(70.8695 310.515 0)
(166.526 347.031 0)
(112.476 354.928 0)
(2.71607 293.505 0)
(-95.657 221.054 0)
(-160.352 155.475 0)
(-217.952 98.2729 0)
(-249.9 45.8926 0)
(-277.313 5.46813 0)
(-283.134 -18.7605 0)
(-278.689 -32.0375 0)
(-273.061 -38.246 0)
(-260.199 -46.8503 0)
(-252.463 -60.2857 0)
(-230.452 -69.6764 0)
(-226.114 -70.9858 0)
(-209.094 -71.0782 0)
(-186.181 -72.1558 0)
(-170.909 -71.6894 0)
(-152.841 -66.1211 0)
(-122.793 -52.7666 0)
(-104.172 -31.8709 0)
(-96.7179 -18.6885 0)
(-99.4651 -11.6303 0)
(-126.551 2.57111 0)
(-165.544 -4.351 0)
(-168.531 -44.555 0)
(-125.975 -62.3774 0)
(-81.7554 -56.6712 0)
(-33.8208 -42.5745 0)
(-10.2408 -29.201 0)
(8.33146 -19.7154 0)
(6.11109 -2.05549 0)
(-21.8285 34.3197 0)
(-64.6963 67.4483 0)
(-97.7043 74.0756 0)
(-100.213 56.7778 0)
(-101.599 31.0907 0)
(-87.4347 8.21603 0)
(-82.4648 -7.79003 0)
(-71.6394 -13.7874 0)
(-68.471 -11.2633 0)
(-64.8489 -7.40143 0)
(-63.0009 -6.14392 0)
(-58.5571 -1.70957 0)
(-54.4728 0.577972 0)
(-52.0221 -5.68561 0)
(-49.9922 -10.1624 0)
(-34.498 -6.75045 0)
(2242.53 -693.004 0)
(130.635 677.297 0)
(941.54 1112.13 0)
(1157.49 964.734 0)
(1008.21 646.912 0)
(182.61 -294.701 0)
(-1948.96 -773.128 0)
(605.022 337.36 0)
(1540.25 541.879 0)
(953.076 -207.224 0)
(454.95 -721.732 0)
(117.527 -872.447 0)
(367.566 -742.384 0)
(492.552 153.846 0)
(358.604 253.935 0)
(-851.037 -312.698 0)
(-865.93 -747.493 0)
(-1001.55 -1070.2 0)
(571.582 -1110.9 0)
(255.913 -253.586 0)
(-336.561 -414.122 0)
(1485.06 -906.023 0)
(1779.37 -331.468 0)
(2436.56 648.619 0)
(2591.21 740.529 0)
(1809.51 60.4647 0)
(2019.35 102.832 0)
(784.728 69.5082 0)
(-140.387 -319.069 0)
(1500.56 -891.093 0)
(236.514 -473.55 0)
(-314.728 119.299 0)
(582.617 -98.8297 0)
(920.661 -323.344 0)
(736.028 -320.696 0)
(1124.37 126.162 0)
(1104.58 575.082 0)
(131.838 1254.08 0)
(-2.35112 770.333 0)
(485.254 167.541 0)
(345.115 -16.984 0)
(141.037 -117.51 0)
(146.669 -55.2137 0)
(161.729 39.0448 0)
(129.709 102.33 0)
(-13.8995 202.423 0)
(-334.907 304.251 0)
(-547.874 316.176 0)
(-429.09 304.716 0)
(-286.85 256.382 0)
(-62.4151 231.799 0)
(92.6795 270.561 0)
(165.059 338.846 0)
(142.64 375.471 0)
(48.1101 325.375 0)
(-54.3712 239.975 0)
(-126.734 164.592 0)
(-183.776 106.254 0)
(-212.423 53.6612 0)
(-237.037 9.77864 0)
(-242.754 -18.0442 0)
(-249.287 -32.6716 0)
(-241.272 -40.137 0)
(-237.477 -48.7404 0)
(-223.788 -63.929 0)
(-216.273 -72.4099 0)
(-204.089 -72.9181 0)
(-190.754 -74.7831 0)
(-180.947 -75.4983 0)
(-164.039 -75.7934 0)
(-144.543 -72.0202 0)
(-124.216 -57.6974 0)
(-105.27 -33.7477 0)
(-94.8787 -20.1885 0)
(-102.479 -6.71485 0)
(-144.304 12.5311 0)
(-180.27 -0.555363 0)
(-183.781 -48.5739 0)
(-146.627 -74.5613 0)
(-88.1557 -67.9577 0)
(-50.0369 -51.898 0)
(-14.8289 -34.6827 0)
(-3.6116 -21.4938 0)
(-0.304523 1.76467 0)
(-36.1468 43.9669 0)
(-77.8118 75.0975 0)
(-101.165 78.4342 0)
(-102.519 56.2089 0)
(-90.0189 29.2361 0)
(-84.7529 5.95858 0)
(-73.2944 -9.98778 0)
(-68.3455 -15.3689 0)
(-59.598 -11.9605 0)
(-62.6505 -7.94094 0)
(-56.291 -7.24876 0)
(-55.5508 -2.46309 0)
(-47.0069 -0.324236 0)
(-44.8886 -7.23871 0)
(-44.8448 -11.8915 0)
(-31.5369 -7.03254 0)
(2231.73 -896.913 0)
(198.421 643.007 0)
(1014.23 1088.5 0)
(1278.83 949.56 0)
(1260.21 747.254 0)
(392.866 107.238 0)
(-1693.33 -818.333 0)
(713.068 17.6779 0)
(1342.35 536.065 0)
(808.216 -75.1427 0)
(20.6631 -573.705 0)
(-1827.79 -847.857 0)
(-962.722 -887.613 0)
(788.074 85.7085 0)
(901.787 362.528 0)
(745.602 -258.623 0)
(704.508 -623.827 0)
(-4.87585 -1163.67 0)
(361.876 -1268.07 0)
(837.705 -428.179 0)
(1825.69 -669.022 0)
(1794.9 -987.297 0)
(1847.94 -431.392 0)
(2334.33 565.179 0)
(2521.6 773.753 0)
(1640.55 185.26 0)
(1740.52 210.94 0)
(1012.72 264.184 0)
(614.647 -332.52 0)
(1792.39 -810.052 0)
(-821.431 -281.288 0)
(148.994 43.6258 0)
(657.752 -222.982 0)
(922.434 -378.044 0)
(892.118 -363.362 0)
(1280.98 134.595 0)
(544.282 768.914 0)
(-291.797 1381.5 0)
(61.0559 677.06 0)
(359.485 134.442 0)
(385.093 -7.89132 0)
(459.584 -74.2205 0)
(149.6 -49.6545 0)
(155.092 31.5906 0)
(200.135 127.954 0)
(84.4868 259.677 0)
(-315.495 379.623 0)
(-516.213 332.427 0)
(-430.954 269.068 0)
(-185.655 204.605 0)
(-0.356934 183.59 0)
(126.203 242.376 0)
(187.579 335.688 0)
(167.783 389.742 0)
(78.9239 347.949 0)
(-15.6628 264.394 0)
(-91.0695 185.9 0)
(-146.971 118.893 0)
(-172.282 59.3402 0)
(-192.013 13.574 0)
(-209.332 -15.8543 0)
(-209.89 -32.5894 0)
(-214.107 -40.828 0)
(-203.106 -51.0301 0)
(-200.459 -66.0274 0)
(-188.971 -74.849 0)
(-191.035 -75.3204 0)
(-181.932 -77.4686 0)
(-166.179 -79.3048 0)
(-156.119 -79.7864 0)
(-142.947 -77.103 0)
(-119.414 -62.895 0)
(-104.111 -37.6717 0)
(-93.9205 -19.8857 0)
(-106.855 0.0505021 0)
(-150.567 24.1935 0)
(-195.221 4.28795 0)
(-193.802 -54.9326 0)
(-157.856 -85.1524 0)
(-102.718 -80.5593 0)
(-54.284 -61.3492 0)
(-27.4881 -40.4193 0)
(-8.1604 -23.1409 0)
(-11.5537 6.20477 0)
(-47.4745 51.1719 0)
(-80.9101 82.8086 0)
(-91.9112 80.5667 0)
(-90.6132 54.9811 0)
(-87.3414 27.0285 0)
(-73.908 3.77942 0)
(-71.0809 -11.8876 0)
(-60.2739 -17.0015 0)
(-58.1956 -12.6419 0)
(-54.2836 -8.4348 0)
(-52.9902 -8.21746 0)
(-48.8365 -3.91597 0)