/*--------------------------------*- C++ -*----------------------------------*\
| =========                 |                                                 |
| \\      /  F ield         | foam-extend: Open Source CFD                    |
|  \\    /   O peration     | Version:     5.0                                |
|   \\  /    A nd           | Web:         http://www.foam-extend.org         |
|    \\/     M anipulation  |                                                 |
\*---------------------------------------------------------------------------*/
FoamFile
{
    version     2.0;
    format      ascii;
    class       regIOobject;
    location    "0.5/uniform";
    object      profilingInfo;
}
// * * * * * * * * * * * * * * * * * * * * * * * * * * * * * * * * * * * * * //

profilingInfo
(

    {
        id              19;
        parentId        15;
        description     "Foam::Time::writeObject - outputTime";
        calls           1;
        totalTime       0.013702;
        childTime       0;
        onStack         1;
    }

    {
        id              15;
        parentId        1;
        description     "Foam::Time::writeObject";
        calls           5000;
        totalTime       0.02466;
        childTime       0.013702;
        onStack         1;
    }

    {
        id              1;
        description     "application::main";
        calls           1;
        totalTime       65.8428;
        childTime       21.517;
        onStack         1;
    }

    {
        id              18;
        parentId        1;
        description     "FO::minMaxAlpha1::execute";
        calls           4999;
        totalTime       0.045805;
        childTime       0;
        onStack         0;
    }

    {
        id              8;
        parentId        5;
        description     "FO::minMaxAlpha1::start";
        calls           1;
        totalTime       1e-06;
        childTime       0;
        onStack         0;
    }

    {
        id              16;
        parentId        1;
        description     "FO::minMaxPd::execute";
        calls           4999;
        totalTime       0.069741;
        childTime       0;
        onStack         0;
    }

    {
        id              6;
        parentId        5;
        description     "FO::minMaxPd::start";
        calls           1;
        totalTime       4e-06;
        childTime       0;
        onStack         0;
    }

    {
        id              17;
        parentId        1;
        description     "FO::minMaxU::execute";
        calls           4999;
        totalTime       0.130164;
        childTime       0;
        onStack         0;
    }

    {
        id              7;
        parentId        5;
        description     "FO::minMaxU::start";
        calls           1;
        totalTime       1e-06;
        childTime       0;
        onStack         0;
    }

    {
        id              5;
        parentId        1;
        description     "functionObjectList::read";
        calls           1;
        totalTime       0.005604;
        childTime       6e-06;
        onStack         0;
    }

    {
        id              12;
        parentId        1;
        description     "fvMatrix::solve_U";
        calls           10000;
        totalTime       4.10327;
        childTime       3.51983;
        onStack         0;
    }

    {
        id              9;
        parentId        1;
        description     "fvMatrix::solve_Voltage";
        calls           10000;
        totalTime       5.71476;
        childTime       5.38866;
        onStack         0;
    }

    {
        id              2;
        parentId        1;
        description     "fvMatrix::solve_pd";
        calls           20001;
        totalTime       11.423;
        childTime       10.803;
        onStack         0;
    }

    {
        id              13;
        parentId        12;
        description     "lduMatrix::solver_Ux";
        calls           10000;
        totalTime       1.73386;
        childTime       0;
        onStack         0;
    }

    {
        id              14;
        parentId        12;
        description     "lduMatrix::solver_Uy";
        calls           10000;
        totalTime       1.78597;
        childTime       0;
        onStack         0;
    }

    {
        id              10;
        parentId        9;
        description     "lduMatrix::solver_Voltage";
        calls           10000;
        totalTime       5.38866;
        childTime       0.044826;
        onStack         0;
    }

    {
        id              3;
        parentId        2;
        description     "lduMatrix::solver_pd";
        calls           20001;
        totalTime       10.803;
        childTime       0.088187;
        onStack         0;
    }

    {
        id              4;
        parentId        3;
        description     "lduMatrix::solver_topLevelCorr";
        calls           21101;
        totalTime       0.088187;
        childTime       0;
        onStack         0;
    }

    {
        id              11;
        parentId        10;
        description     "lduMatrix::solver_topLevelCorr";
        calls           10000;
        totalTime       0.044826;
        childTime       0;
        onStack         0;
    }
);


// ************************************************************************* //
