/*--------------------------------*- C++ -*----------------------------------*\
| =========                 |                                                 |
| \\      /  F ield         | foam-extend: Open Source CFD                    |
|  \\    /   O peration     | Version:     5.0                                |
|   \\  /    A nd           | Web:         http://www.foam-extend.org         |
|    \\/     M anipulation  |                                                 |
\*---------------------------------------------------------------------------*/
FoamFile
{
    version     2.0;
    format      ascii;
    class       volVectorField;
    location    "0.04";
    object      bodyForce;
}
// * * * * * * * * * * * * * * * * * * * * * * * * * * * * * * * * * * * * * //

dimensions      [0 1 -2 0 0 0 0];

internalField   nonuniform List<vector> 
4000
(
(21.8599 -0 0)
(278.577 -0 0)
(492.436 -0 0)
(731.082 -0 0)
(963.326 -0 0)
(1161.21 -0 0)
(1333.9 -0 0)
(1485.17 -0 0)
(1636.02 -0 0)
(1778.98 -0 0)
(1895.17 -0 0)
(1965.44 -0 0)
(2022.26 -0 0)
(2076.92 -0 0)
(2132.34 -0 0)
(2188.05 -0 0)
(2230.28 -0 0)
(2270.35 -0 0)
(2302.16 -0 0)
(2330.98 -0 0)
(2353.68 -0 0)
(2371.16 -0 0)
(2383.32 -0 0)
(2395.63 -0 0)
(2406.62 -0 0)
(2413.91 -0 0)
(2418.53 -0 0)
(2422.8 -0 0)
(2426.29 -0 0)
(2429.13 -0 0)
(2431.53 -0 0)
(2433.46 -0 0)
(2434.9 -0 0)
(2435.65 -0 0)
(2436.17 -0 0)
(2436.6 -0 0)
(2436.95 -0 0)
(2437.21 -0 0)
(2437.47 -0 0)
(2437.69 -0 0)
(2437.93 -0 0)
(2438.12 -0 0)
(2438.17 -0 0)
(2438.3 -0 0)
(2438.43 -0 0)
(2438.27 -0 0)
(2438.05 -0 0)
(2437.98 -0 0)
(2437.98 -0 0)
(2437.94 -0 0)
(2437.93 -0 0)
(2437.97 -0 0)
(2438.02 -0 0)
(2438.04 -0 0)
(2438.11 -0 0)
(2438.29 -0 0)
(2438.44 -0 0)
(2438.35 -0 0)
(2438.16 -0 0)
(2438.07 -0 0)
(2438.06 -0 0)
(2438.07 -0 0)
(2438.07 -0 0)
(2438.12 -0 0)
(2438.29 -0 0)
(2438.42 -0 0)
(2438.31 -0 0)
(2438.12 -0 0)
(2437.99 -0 0)
(2437.94 -0 0)
(2437.97 -0 0)
(2438.19 -0 0)
(2438.39 -0 0)
(2438.23 -0 0)
(2437.94 -0 0)
(2437.74 -0 0)
(2437.56 -0 0)
(2437.33 -0 0)
(2437 -0 0)
(2436.51 -0 0)
(2435.86 -0 0)
(2434.75 -0 0)
(2432.86 -0 0)
(2430.02 -0 0)
(2425.9 -0 0)
(2420.11 -0 0)
(2411.71 -0 0)
(2399.49 -0 0)
(2382.22 -0 0)
(2357.96 -0 0)
(2323.73 -0 0)
(2275.21 -0 0)
(2207.88 -0 0)
(2113.55 -0 0)
(1986.64 -0 0)
(1823.76 -0 0)
(1594.83 -0 0)
(1336.43 -0 0)
(1385.61 -0 0)
(1564.02 -0 0)
(141.234 -0 0)
(933.111 -0 0)
(1549.8 -0 0)
(2165.62 -0 0)
(2768.23 -0 0)
(3307.08 -0 0)
(3783.6 -0 0)
(4200.82 -0 0)
(4608.43 -0 0)
(4976.74 -0 0)
(5281.9 -0 0)
(5487.2 -0 0)
(5691.77 -0 0)
(5867.81 -0 0)
(6017.97 -0 0)
(6177.03 -0 0)
(6293.12 -0 0)
(6405.53 -0 0)
(6492.93 -0 0)
(6567.51 -0 0)
(6624.83 -0 0)
(6675.51 -0 0)
(6710.11 -0 0)
(6742.63 -0 0)
(6769.41 -0 0)
(6788.58 -0 0)
(6801.67 -0 0)
(6813.1 -0 0)
(6822.11 -0 0)
(6829.27 -0 0)
(6835.1 -0 0)
(6839.77 -0 0)
(6843.12 -0 0)
(6845.2 -0 0)
(6846.58 -0 0)
(6847.66 -0 0)
(6848.6 -0 0)
(6849.27 -0 0)
(6849.9 -0 0)
(6850.41 -0 0)
(6850.92 -0 0)
(6851.31 -0 0)
(6851.47 -0 0)
(6851.71 -0 0)
(6851.94 -0 0)
(6851.66 -0 0)
(6851.28 -0 0)
(6851.15 -0 0)
(6851.13 -0 0)
(6851.04 -0 0)
(6850.99 -0 0)
(6851.09 -0 0)
(6851.21 -0 0)
(6851.27 -0 0)
(6851.4 -0 0)
(6851.69 -0 0)
(6851.94 -0 0)
(6851.81 -0 0)
(6851.5 -0 0)
(6851.34 -0 0)
(6851.32 -0 0)
(6851.33 -0 0)
(6851.34 -0 0)
(6851.43 -0 0)
(6851.69 -0 0)
(6851.9 -0 0)
(6851.75 -0 0)
(6851.44 -0 0)
(6851.19 -0 0)
(6851.07 -0 0)
(6851.09 -0 0)
(6851.5 -0 0)
(6851.86 -0 0)
(6851.6 -0 0)
(6851.08 -0 0)
(6850.68 -0 0)
(6850.3 -0 0)
(6849.83 -0 0)
(6849.15 -0 0)
(6848.16 -0 0)
(6846.8 -0 0)
(6844.5 -0 0)
(6840.7 -0 0)
(6834.96 -0 0)
(6826.6 -0 0)
(6814.72 -0 0)
(6797.33 -0 0)
(6772.22 -0 0)
(6736.4 -0 0)
(6685.55 -0 0)
(6612.38 -0 0)
(6508.75 -0 0)
(6366.2 -0 0)
(6164.9 -0 0)
(5895.38 -0 0)
(5545.73 -0 0)
(5076.6 -0 0)
(4613.09 -0 0)
(4645.15 -0 0)
(4692.03 -0 0)
(213.451 -0 0)
(1433.25 -0 0)
(2366.16 -0 0)
(3248.9 -0 0)
(4112.47 -0 0)
(4902.79 -0 0)
(5610.27 -0 0)
(6238.84 -0 0)
(6825.05 -0 0)
(7340.21 -0 0)
(7768.69 -0 0)
(8053.31 -0 0)
(8432.82 -0 0)
(8725.82 -0 0)
(8976.73 -0 0)
(9196.47 -0 0)
(9374.52 -0 0)
(9526.07 -0 0)
(9650.35 -0 0)
(9751.94 -0 0)
(9839.03 -0 0)
(9905.72 -0 0)
(9955.68 -0 0)
(9999.44 -0 0)
(10034.3 -0 0)
(10060.6 -0 0)
(10079.4 -0 0)
(10095 -0 0)
(10107.1 -0 0)
(10116.5 -0 0)
(10123.9 -0 0)
(10129.8 -0 0)
(10134 -0 0)
(10136.8 -0 0)
(10138.5 -0 0)
(10139.8 -0 0)
(10141.2 -0 0)
(10142.2 -0 0)
(10142.9 -0 0)
(10143.5 -0 0)
(10144.1 -0 0)
(10144.6 -0 0)
(10144.7 -0 0)
(10145 -0 0)
(10145.3 -0 0)
(10145 -0 0)
(10144.6 -0 0)
(10144.4 -0 0)
(10144.5 -0 0)
(10144.4 -0 0)
(10144.3 -0 0)
(10144.4 -0 0)
(10144.6 -0 0)
(10144.6 -0 0)
(10144.7 -0 0)
(10145 -0 0)
(10145.3 -0 0)
(10145.2 -0 0)
(10144.8 -0 0)
(10144.7 -0 0)
(10144.7 -0 0)
(10144.7 -0 0)
(10144.7 -0 0)
(10144.8 -0 0)
(10145 -0 0)
(10145.3 -0 0)
(10145.1 -0 0)
(10144.8 -0 0)
(10144.5 -0 0)
(10144.4 -0 0)
(10144.4 -0 0)
(10144.8 -0 0)
(10145.3 -0 0)
(10145 -0 0)
(10144.4 -0 0)
(10144 -0 0)
(10143.5 -0 0)
(10143 -0 0)
(10142.3 -0 0)
(10141.2 -0 0)
(10139.7 -0 0)
(10137.2 -0 0)
(10133.1 -0 0)
(10126.8 -0 0)
(10117.7 -0 0)
(10104.7 -0 0)
(10085.2 -0 0)
(10057.7 -0 0)
(10018.1 -0 0)
(9961.32 -0 0)
(9876.37 -0 0)
(9757.06 -0 0)
(9598.09 -0 0)
(9366.75 -0 0)
(9062.65 -0 0)
(8662.29 -0 0)
(8120.61 -0 0)
(7568.95 -0 0)
(7342.79 -0 0)
(6937.05 -0 0)
(216.658 -0 0)
(1713.06 -0 0)
(2830.51 -0 0)
(3875.17 -0 0)
(4903.47 -0 0)
(5854.56 -0 0)
(6715.14 -0 0)
(7484.19 -0 0)
(8193.37 -0 0)
(8775.64 -0 0)
(9257.27 -0 0)
(9575.25 -0 0)
(10170.8 -0 0)
(10562 -0 0)
(10883.9 -0 0)
(11152.2 -0 0)
(11372.6 -0 0)
(11554.3 -0 0)
(11704.3 -0 0)
(11820.1 -0 0)
(11928.4 -0 0)
(12008 -0 0)
(12068.3 -0 0)
(12120.1 -0 0)
(12157.8 -0 0)
(12189.9 -0 0)
(12213.2 -0 0)
(12231.9 -0 0)
(12246.1 -0 0)
(12256.9 -0 0)
(12265.2 -0 0)
(12271.6 -0 0)
(12276.3 -0 0)
(12279.5 -0 0)
(12281.1 -0 0)
(12283.2 -0 0)
(12284.7 -0 0)
(12285.8 -0 0)
(12286.6 -0 0)
(12287.2 -0 0)
(12287.8 -0 0)
(12288.4 -0 0)
(12288.5 -0 0)
(12288.8 -0 0)
(12289.1 -0 0)
(12288.8 -0 0)
(12288.4 -0 0)
(12288.3 -0 0)
(12288.3 -0 0)
(12288.2 -0 0)
(12288.1 -0 0)
(12288.2 -0 0)
(12288.4 -0 0)
(12288.5 -0 0)
(12288.6 -0 0)
(12288.9 -0 0)
(12289.1 -0 0)
(12289 -0 0)
(12288.6 -0 0)
(12288.5 -0 0)
(12288.5 -0 0)
(12288.5 -0 0)
(12288.5 -0 0)
(12288.6 -0 0)
(12288.9 -0 0)
(12289.1 -0 0)
(12288.9 -0 0)
(12288.6 -0 0)
(12288.4 -0 0)
(12288.2 -0 0)
(12288.1 -0 0)
(12288.6 -0 0)
(12289.1 -0 0)
(12288.8 -0 0)
(12288.2 -0 0)
(12287.8 -0 0)
(12287.4 -0 0)
(12286.9 -0 0)
(12286.2 -0 0)
(12285.1 -0 0)
(12283.7 -0 0)
(12281 -0 0)
(12277.2 -0 0)
(12271 -0 0)
(12262.1 -0 0)
(12249.4 -0 0)
(12229.3 -0 0)
(12202.9 -0 0)
(12163.9 -0 0)
(12107.3 -0 0)
(12025 -0 0)
(11903.9 -0 0)
(11734.9 -0 0)
(11490.8 -0 0)
(11193.6 -0 0)
(10786.1 -0 0)
(10214.7 -0 0)
(9581.78 -0 0)
(9091.13 -0 0)
(8324.94 -0 0)
(144.042 -0 0)
(1763.44 -0 0)
(2926.4 -0 0)
(4021.19 -0 0)
(5118.89 -0 0)
(6139.66 -0 0)
(7071.88 -0 0)
(7909.51 -0 0)
(8683.15 -0 0)
(9208.34 -0 0)
(9643.04 -0 0)
(10362.1 -0 0)
(10911.3 -0 0)
(11338.1 -0 0)
(11695.8 -0 0)
(11993.1 -0 0)
(12238.4 -0 0)
(12439.4 -0 0)
(12604.3 -0 0)
(12738.9 -0 0)
(12845.7 -0 0)
(12934 -0 0)
(13001.1 -0 0)
(13058.2 -0 0)
(13090.1 -0 0)
(13130.9 -0 0)
(13158.6 -0 0)
(13179.6 -0 0)
(13195.1 -0 0)
(13206.7 -0 0)
(13214.9 -0 0)
(13221.3 -0 0)
(13226.4 -0 0)
(13230.2 -0 0)
(13232.6 -0 0)
(13234.4 -0 0)
(13236 -0 0)
(13237.2 -0 0)
(13238 -0 0)
(13238.5 -0 0)
(13239.1 -0 0)
(13239.8 -0 0)
(13239.9 -0 0)
(13240.2 -0 0)
(13240.7 -0 0)
(13240.3 -0 0)
(13239.7 -0 0)
(13239.7 -0 0)
(13239.8 -0 0)
(13239.7 -0 0)
(13239.4 -0 0)
(13239.7 -0 0)
(13239.9 -0 0)
(13239.9 -0 0)
(13240 -0 0)
(13240.4 -0 0)
(13240.5 -0 0)
(13240.4 -0 0)
(13240 -0 0)
(13240 -0 0)
(13240 -0 0)
(13240 -0 0)
(13240 -0 0)
(13240 -0 0)
(13240.4 -0 0)
(13240.6 -0 0)
(13240.4 -0 0)
(13239.9 -0 0)
(13239.8 -0 0)
(13239.7 -0 0)
(13239.5 -0 0)
(13240.1 -0 0)
(13240.6 -0 0)
(13240.3 -0 0)
(13239.7 -0 0)
(13239.3 -0 0)
(13238.9 -0 0)
(13238.4 -0 0)
(13237.7 -0 0)
(13236.7 -0 0)
(13235.5 -0 0)
(13233.2 -0 0)
(13229.3 -0 0)
(13222.9 -0 0)
(13214.8 -0 0)
(13202.8 -0 0)
(13180.4 -0 0)
(13157.9 -0 0)
(13120.2 -0 0)
(13066.1 -0 0)
(12984.3 -0 0)
(12859.1 -0 0)
(12680.7 -0 0)
(12415.6 -0 0)
(12165.5 -0 0)
(11765.6 -0 0)
(11179.1 -0 0)
(10468.3 -0 0)
(9796.67 -0 0)
(8831.32 -0 0)
(2.60503 -0 0)
(1605.46 -0 0)
(2686.37 -0 0)
(3715.81 -0 0)
(4787.45 -0 0)
(5787.78 -0 0)
(6709.94 -0 0)
(7544.71 -0 0)
(8325.34 -0 0)
(8813.49 -0 0)
(9509.39 -0 0)
(10127.4 -0 0)
(10639 -0 0)
(11064.7 -0 0)
(11427.6 -0 0)
(11732.3 -0 0)
(11984.9 -0 0)
(12191.9 -0 0)
(12360.5 -0 0)
(12500.4 -0 0)
(12591.5 -0 0)
(12692.1 -0 0)
(12763.9 -0 0)
(12823.1 -0 0)
(12828.7 -0 0)
(12893.5 -0 0)
(12925 -0 0)
(12947 -0 0)
(12962.5 -0 0)
(12974.1 -0 0)
(12980.9 -0 0)
(12986.5 -0 0)
(12992.2 -0 0)
(12997.4 -0 0)
(13000 -0 0)
(13001.3 -0 0)
(13003.4 -0 0)
(13004.6 -0 0)
(13005.4 -0 0)
(13005.8 -0 0)
(13006.6 -0 0)
(13007.2 -0 0)
(13007.2 -0 0)
(13007.6 -0 0)
(13008.1 -0 0)
(13007.6 -0 0)
(13007 -0 0)
(13007 -0 0)
(13007.2 -0 0)
(13007.2 -0 0)
(13007 -0 0)
(13007.1 -0 0)
(13007.2 -0 0)
(13007.3 -0 0)
(13007.4 -0 0)
(13007.8 -0 0)
(13008.1 -0 0)
(13007.8 -0 0)
(13007.3 -0 0)
(13007.3 -0 0)
(13007.3 -0 0)
(13007.3 -0 0)
(13007.3 -0 0)
(13007.4 -0 0)
(13007.8 -0 0)
(13008.1 -0 0)
(13007.7 -0 0)
(13007.1 -0 0)
(13007.2 -0 0)
(13007 -0 0)
(13006.8 -0 0)
(13007.5 -0 0)
(13008 -0 0)
(13007.7 -0 0)
(13007 -0 0)
(13006.6 -0 0)
(13006.2 -0 0)
(13005.9 -0 0)
(13005 -0 0)
(13004.3 -0 0)
(13003.3 -0 0)
(13001.2 -0 0)
(12997.6 -0 0)
(12990.4 -0 0)
(12984 -0 0)
(12973.2 -0 0)
(12955.3 -0 0)
(12931.9 -0 0)
(12894.2 -0 0)
(12843.5 -0 0)
(12768.8 -0 0)
(12619.5 -0 0)
(12475.7 -0 0)
(12274.9 -0 0)
(12003.2 -0 0)
(11612 -0 0)
(11030.8 -0 0)
(10278.6 -0 0)
(9514.46 -0 0)
(8427.69 -0 0)
(-179.139 0 0)
(1287.32 -0 0)
(2193.3 -0 0)
(3061.35 -0 0)
(4026.42 -0 0)
(4929.58 -0 0)
(5769.48 -0 0)
(6537.67 -0 0)
(7268.18 -0 0)
(7631.63 -0 0)
(8455.28 -0 0)
(9018.89 -0 0)
(9483.83 -0 0)
(9880.59 -0 0)
(10222.2 -0 0)
(10511.9 -0 0)
(10752.8 -0 0)
(10950.4 -0 0)
(11110.3 -0 0)
(11243.5 -0 0)
(11280.8 -0 0)
(11418.2 -0 0)
(11491.8 -0 0)
(11549.2 -0 0)
(11579.4 -0 0)
(11619.3 -0 0)
(11645.7 -0 0)
(11665.4 -0 0)
(11679.3 -0 0)
(11690.3 -0 0)
(11697.9 -0 0)
(11704.1 -0 0)
(11708.8 -0 0)
(11712.3 -0 0)
(11714.3 -0 0)
(11716 -0 0)
(11717.5 -0 0)
(11718.6 -0 0)
(11719.2 -0 0)
(11719.7 -0 0)
(11720.4 -0 0)
(11720.8 -0 0)
(11720.8 -0 0)
(11721.2 -0 0)
(11721.7 -0 0)
(11721.2 -0 0)
(11720.6 -0 0)
(11720.7 -0 0)
(11720.9 -0 0)
(11721 -0 0)
(11720.8 -0 0)
(11720.9 -0 0)
(11720.9 -0 0)
(11721 -0 0)
(11721 -0 0)
(11721.6 -0 0)
(11721.7 -0 0)
(11721.4 -0 0)
(11720.8 -0 0)
(11721 -0 0)
(11721 -0 0)
(11721 -0 0)
(11721 -0 0)
(11721 -0 0)
(11721.5 -0 0)
(11721.7 -0 0)
(11721.4 -0 0)
(11720.7 -0 0)
(11720.9 -0 0)
(11720.8 -0 0)
(11720.3 -0 0)
(11721.2 -0 0)
(11721.6 -0 0)
(11721.3 -0 0)
(11720.6 -0 0)
(11720.4 -0 0)
(11720.1 -0 0)
(11719.7 -0 0)
(11719 -0 0)
(11718.3 -0 0)
(11717.5 -0 0)
(11715.7 -0 0)
(11712.4 -0 0)
(11707 -0 0)
(11700.7 -0 0)
(11691 -0 0)
(11676 -0 0)
(11654.5 -0 0)
(11612.9 -0 0)
(11568.2 -0 0)
(11501.3 -0 0)
(11399 -0 0)
(11270.1 -0 0)
(11084.5 -0 0)
(10824.1 -0 0)
(10457 -0 0)
(9906.9 -0 0)
(9160.32 -0 0)
(8374.2 -0 0)
(7191.09 -0 0)
(-374.911 0 0)
(870.605 -0 0)
(1540.2 -0 0)
(2175.38 -0 0)
(2971.76 -0 0)
(3716.98 -0 0)
(4414.97 -0 0)
(5061.25 -0 0)
(5693.15 -0 0)
(6190.52 -0 0)
(6781.74 -0 0)
(7248.74 -0 0)
(7639.15 -0 0)
(7984.91 -0 0)
(8282.61 -0 0)
(8536.94 -0 0)
(8748.7 -0 0)
(8922.49 -0 0)
(9062.89 -0 0)
(9180.53 -0 0)
(9250.48 -0 0)
(9337.38 -0 0)
(9397.09 -0 0)
(9446.15 -0 0)
(9479.53 -0 0)
(9508.88 -0 0)
(9529.11 -0 0)
(9545.29 -0 0)
(9556.12 -0 0)
(9565.91 -0 0)
(9573.01 -0 0)
(9578.86 -0 0)
(9582.31 -0 0)
(9585.15 -0 0)
(9586.34 -0 0)
(9588.23 -0 0)
(9589.36 -0 0)
(9590.2 -0 0)
(9590.57 -0 0)
(9590.93 -0 0)
(9591.7 -0 0)
(9591.82 -0 0)
(9591.78 -0 0)
(9592.32 -0 0)
(9592.37 -0 0)
(9592.3 -0 0)
(9591.78 -0 0)
(9592.03 -0 0)
(9592.18 -0 0)
(9592.34 -0 0)
(9592.16 -0 0)
(9592.36 -0 0)
(9592.16 -0 0)
(9592.3 -0 0)
(9592.18 -0 0)
(9592.85 -0 0)
(9592.52 -0 0)
(9592.59 -0 0)
(9591.83 -0 0)
(9592.18 -0 0)
(9592.26 -0 0)
(9592.25 -0 0)
(9592.2 -0 0)
(9592.09 -0 0)
(9592.79 -0 0)
(9592.46 -0 0)
(9592.53 -0 0)
(9591.76 -0 0)
(9592.11 -0 0)
(9592.1 -0 0)
(9591.73 -0 0)
(9592.64 -0 0)
(9592.33 -0 0)
(9592.35 -0 0)
(9591.64 -0 0)
(9591.6 -0 0)
(9591.45 -0 0)
(9591.02 -0 0)
(9590.38 -0 0)
(9589.84 -0 0)
(9589.26 -0 0)
(9587.53 -0 0)
(9585 -0 0)
(9580.84 -0 0)
(9575.52 -0 0)
(9567.38 -0 0)
(9555.16 -0 0)
(9537.19 -0 0)
(9507.44 -0 0)
(9446.07 -0 0)
(9384.81 -0 0)
(9322.88 -0 0)
(9224.02 -0 0)
(9065.44 -0 0)
(8835.79 -0 0)
(8510.19 -0 0)
(8015.02 -0 0)
(7310.97 -0 0)
(6511.26 -0 0)
(5228.84 -0 0)
(-567.587 0 0)
(412.675 -0 0)
(812.06 -0 0)
(1172.89 -0 0)
(1759.48 -0 0)
(2304.03 -0 0)
(2815.46 -0 0)
(3306.97 -0 0)
(3794.73 -0 0)
(4246.34 -0 0)
(4679.47 -0 0)
(5035.6 -0 0)
(5323.05 -0 0)
(5605.06 -0 0)
(5840.41 -0 0)
(6042.61 -0 0)
(6210.42 -0 0)
(6348.48 -0 0)
(6459.86 -0 0)
(6553.66 -0 0)
(6619.96 -0 0)
(6679.95 -0 0)
(6723.18 -0 0)
(6760.23 -0 0)
(6788.23 -0 0)
(6809.56 -0 0)
(6822.53 -0 0)
(6835.36 -0 0)
(6841.42 -0 0)
(6851.03 -0 0)
(6856.51 -0 0)
(6861.32 -0 0)
(6862.24 -0 0)
(6865.91 -0 0)
(6865.87 -0 0)
(6868.01 -0 0)
(6868.69 -0 0)
(6869.41 -0 0)
(6869.72 -0 0)
(6869.87 -0 0)
(6870.47 -0 0)
(6869.63 -0 0)
(6870.12 -0 0)
(6870.77 -0 0)
(6869.32 -0 0)
(6870.7 -0 0)
(6870.48 -0 0)
(6870.95 -0 0)
(6870.98 -0 0)
(6871.17 -0 0)
(6871.02 -0 0)
(6871.54 -0 0)
(6870.92 -0 0)
(6871.02 -0 0)
(6870.74 -0 0)
(6871.48 -0 0)
(6869.58 -0 0)
(6871.32 -0 0)
(6870.35 -0 0)
(6870.86 -0 0)
(6870.92 -0 0)
(6870.92 -0 0)
(6870.84 -0 0)
(6870.61 -0 0)
(6871.39 -0 0)
(6869.5 -0 0)
(6871.27 -0 0)
(6870.27 -0 0)
(6870.83 -0 0)
(6870.87 -0 0)
(6870.45 -0 0)
(6871.64 -0 0)
(6869.35 -0 0)
(6870.69 -0 0)
(6870.16 -0 0)
(6870.34 -0 0)
(6870.28 -0 0)
(6870.01 -0 0)
(6869.52 -0 0)
(6868.92 -0 0)
(6868.41 -0 0)
(6866.14 -0 0)
(6865.18 -0 0)
(6862.23 -0 0)
(6858.38 -0 0)
(6852.38 -0 0)
(6843.31 -0 0)
(6829.42 -0 0)
(6808.58 -0 0)
(6773.25 -0 0)
(6728.24 -0 0)
(6676.88 -0 0)
(6596.07 -0 0)
(6470.24 -0 0)
(6283.87 -0 0)
(6014.31 -0 0)
(5591.7 -0 0)
(4947.73 -0 0)
(4084.02 -0 0)
(2681.47 -0 0)
(-746.837 0 0)
(-40.7714 0 0)
(74.1385 -0 0)
(147.006 -0 0)
(501.698 -0 0)
(821.279 -0 0)
(1120.05 -0 0)
(1431.46 -0 0)
(1760.75 -0 0)
(2076.76 -0 0)
(2359.57 -0 0)
(2591.43 -0 0)
(2743.07 -0 0)
(2964.75 -0 0)
(3123.2 -0 0)
(3260.36 -0 0)
(3372.77 -0 0)
(3466.69 -0 0)
(3541.93 -0 0)
(3605.58 -0 0)
(3653.16 -0 0)
(3690.51 -0 0)
(3715.98 -0 0)
(3739.26 -0 0)
(3758.56 -0 0)
(3771.53 -0 0)
(3774.49 -0 0)
(3786.11 -0 0)
(3789.72 -0 0)
(3796.66 -0 0)
(3799.78 -0 0)
(3803.03 -0 0)
(3798.5 -0 0)
(3806.35 -0 0)
(3805.43 -0 0)
(3807.12 -0 0)
(3807.5 -0 0)
(3807.82 -0 0)
(3807.94 -0 0)
(3807.87 -0 0)
(3808.3 -0 0)
(3805.05 -0 0)
(3807.54 -0 0)
(3808.21 -0 0)
(3802.51 -0 0)
(3808.25 -0 0)
(3808.43 -0 0)
(3809.2 -0 0)
(3808.92 -0 0)
(3809.12 -0 0)
(3808.96 -0 0)
(3810.16 -0 0)
(3808.83 -0 0)
(3808.89 -0 0)
(3808.36 -0 0)
(3809.07 -0 0)
(3802.83 -0 0)
(3809.5 -0 0)
(3808.04 -0 0)
(3808.73 -0 0)
(3808.64 -0 0)
(3808.7 -0 0)
(3808.59 -0 0)
(3808.19 -0 0)
(3808.96 -0 0)
(3802.74 -0 0)
(3809.46 -0 0)
(3807.96 -0 0)
(3808.73 -0 0)
(3808.76 -0 0)
(3808.18 -0 0)
(3809.87 -0 0)
(3802.67 -0 0)
(3808.06 -0 0)
(3807.84 -0 0)
(3808.23 -0 0)
(3808.26 -0 0)
(3808.1 -0 0)
(3807.72 -0 0)
(3807.14 -0 0)
(3806.32 -0 0)
(3802.01 -0 0)
(3804.7 -0 0)
(3802.98 -0 0)
(3800.8 -0 0)
(3797.14 -0 0)
(3791.49 -0 0)
(3781.92 -0 0)
(3768.75 -0 0)
(3751.55 -0 0)
(3720.07 -0 0)
(3690.59 -0 0)
(3635.62 -0 0)
(3548.45 -0 0)
(3414.42 -0 0)
(3212.56 -0 0)
(2875.57 -0 0)
(2302.07 -0 0)
(1297.4 -0 0)
(-231.757 0 0)
(-907.491 0 0)
(-465.236 0 0)
(-627.592 0 0)
(-828.849 0 0)
(-716.033 0 0)
(-634.393 0 0)
(-562.4 0 0)
(-452.448 0 0)
(-307.383 0 0)
(-156.928 0 0)
(-30.0459 0 0)
(69.1218 -0 0)
(136.273 -0 0)
(229.83 -0 0)
(300.128 -0 0)
(364.239 -0 0)
(413.426 -0 0)
(459.397 -0 0)
(494.811 -0 0)
(524.492 -0 0)
(547.065 -0 0)
(562.035 -0 0)
(568.462 -0 0)
(579.063 -0 0)
(587.901 -0 0)
(592.673 -0 0)
(578.544 -0 0)
(597.652 -0 0)
(597.854 -0 0)
(600.581 -0 0)
(601.079 -0 0)
(602.563 -0 0)
(585.916 -0 0)
(605.058 -0 0)
(602.533 -0 0)
(604.001 -0 0)
(604.007 -0 0)
(604.018 -0 0)
(603.95 -0 0)
(603.658 -0 0)
(603.865 -0 0)
(594.827 -0 0)
(603.013 -0 0)
(603.417 -0 0)
(586.892 -0 0)
(603.878 -0 0)
(604.262 -0 0)
(605.306 -0 0)
(604.575 -0 0)
(604.768 -0 0)
(604.522 -0 0)
(606.665 -0 0)
(604.442 -0 0)
(604.48 -0 0)
(603.785 -0 0)
(604.268 -0 0)
(587.119 -0 0)
(605.953 -0 0)
(603.595 -0 0)
(604.322 -0 0)
(603.902 -0 0)
(604.275 -0 0)
(604.132 -0 0)
(603.584 -0 0)
(604.148 -0 0)
(587.025 -0 0)
(605.921 -0 0)
(603.424 -0 0)
(604.374 -0 0)
(604.384 -0 0)
(603.59 -0 0)
(605.818 -0 0)
(587.206 -0 0)
(603.307 -0 0)
(603.458 -0 0)
(603.969 -0 0)
(604.052 -0 0)
(603.982 -0 0)
(603.729 -0 0)
(603.227 -0 0)
(601.212 -0 0)
(591.295 -0 0)
(602.49 -0 0)
(601.904 -0 0)
(601.486 -0 0)
(600.442 -0 0)
(598.599 -0 0)
(595.268 -0 0)
(591.458 -0 0)
(586.734 -0 0)
(577.295 -0 0)
(566.651 -0 0)
(543.073 -0 0)
(501.251 -0 0)
(429.332 -0 0)
(309.468 -0 0)
(77.5728 -0 0)
(-392.028 0 0)
(-1553.36 0 0)
(-3064.28 0 0)
(-1046.58 0 0)
(-847.875 0 0)
(-1260.21 0 0)
(-1703.77 0 0)
(-1823.98 0 0)
(-1974.2 0 0)
(-2122.64 0 0)
(-2215.44 0 0)
(-2262.04 0 0)
(-2288.76 0 0)
(-2321.53 0 0)
(-2359.79 0 0)
(-2400.29 0 0)
(-2422.7 0 0)
(-2443.34 0 0)
(-2455.96 0 0)
(-2467.64 0 0)
(-2475.92 0 0)
(-2482.59 0 0)
(-2488.99 0 0)
(-2493.7 0 0)
(-2501.03 0 0)
(-2509.99 0 0)
(-2514.34 0 0)
(-2517.26 0 0)
(-2520.67 0 0)
(-2530.21 0 0)
(-2525.37 0 0)
(-2528.78 0 0)
(-2529.82 0 0)
(-2531.84 0 0)
(-2532.02 0 0)
(-2538.87 0 0)
(-2531.75 0 0)
(-2533.96 0 0)
(-2533.51 0 0)
(-2533.86 0 0)
(-2534.11 0 0)
(-2534.35 0 0)
(-2534.73 0 0)
(-2534.66 0 0)
(-2537.96 0 0)
(-2535.25 0 0)
(-2535.16 0 0)
(-2540.74 0 0)
(-2534.37 0 0)
(-2534.61 0 0)
(-2533.79 0 0)
(-2534.18 0 0)
(-2533.99 0 0)
(-2534.3 0 0)
(-2532.9 0 0)
(-2534.27 0 0)
(-2534.29 0 0)
(-2534.88 0 0)
(-2534.51 0 0)
(-2540.67 0 0)
(-2533.04 0 0)
(-2534.94 0 0)
(-2534.36 0 0)
(-2534.47 0 0)
(-2534.43 0 0)
(-2534.6 0 0)
(-2535.09 0 0)
(-2534.62 0 0)
(-2540.76 0 0)
(-2533.09 0 0)
(-2535 0 0)
(-2534.34 0 0)
(-2534.36 0 0)
(-2535.16 0 0)
(-2533.51 0 0)
(-2540.53 0 0)
(-2534.44 0 0)
(-2534.95 0 0)
(-2534.56 0 0)
(-2534.44 0 0)
(-2534.41 0 0)
(-2534.51 0 0)
(-2534.73 0 0)
(-2535.05 0 0)
(-2538.07 0 0)
(-2533.43 0 0)
(-2533.11 0 0)
(-2531.83 0 0)
(-2530.13 0 0)
(-2527.96 0 0)
(-2524.9 0 0)
(-2520.22 0 0)
(-2512.08 0 0)
(-2502.49 0 0)
(-2490.39 0 0)
(-2479.76 0 0)
(-2473.23 0 0)
(-2478.64 0 0)
(-2509.64 0 0)
(-2625.4 0 0)
(-2955.42 0 0)
(-4168.97 0 0)
(-5060.5 0 0)
(-1162.69 0 0)
(-1177.3 0 0)
(-1804.74 0 0)
(-2455.57 0 0)
(-2789.87 0 0)
(-3156.16 0 0)
(-3512.58 0 0)
(-3802.86 0 0)
(-4039.43 0 0)
(-4242.73 0 0)
(-4432.36 0 0)
(-4606.88 0 0)
(-4761.91 0 0)
(-4892.29 0 0)
(-5002.39 0 0)
(-5091.03 0 0)
(-5164.91 0 0)
(-5225.9 0 0)
(-5276.07 0 0)
(-5315.9 0 0)
(-5347.96 0 0)
(-5376.93 0 0)
(-5401.77 0 0)
(-5420.03 0 0)
(-5433.76 0 0)
(-5444.99 0 0)
(-5455.98 0 0)
(-5458.38 0 0)
(-5465.9 0 0)
(-5470.1 0 0)
(-5474.9 0 0)
(-5476.56 0 0)
(-5480.01 0 0)
(-5478.72 0 0)
(-5480.69 0 0)
(-5481.11 0 0)
(-5481.73 0 0)
(-5482.19 0 0)
(-5482.58 0 0)
(-5482.99 0 0)
(-5482.95 0 0)
(-5483.97 0 0)
(-5483.4 0 0)
(-5483.33 0 0)
(-5484.65 0 0)
(-5482.69 0 0)
(-5483.27 0 0)
(-5482.76 0 0)
(-5482.87 0 0)
(-5482.72 0 0)
(-5482.93 0 0)
(-5482.32 0 0)
(-5482.94 0 0)
(-5482.98 0 0)
(-5483.37 0 0)
(-5482.94 0 0)
(-5484.64 0 0)
(-5482.06 0 0)
(-5483.37 0 0)
(-5482.99 0 0)
(-5482.98 0 0)
(-5483.04 0 0)
(-5483.22 0 0)
(-5483.55 0 0)
(-5483.04 0 0)
(-5484.72 0 0)
(-5482.11 0 0)
(-5483.39 0 0)
(-5483.01 0 0)
(-5483.03 0 0)
(-5483.6 0 0)
(-5482.5 0 0)
(-5484.5 0 0)
(-5482.55 0 0)
(-5483.22 0 0)
(-5482.97 0 0)
(-5482.82 0 0)
(-5482.7 0 0)
(-5482.61 0 0)
(-5482.46 0 0)
(-5481.81 0 0)
(-5481.79 0 0)
(-5479.32 0 0)
(-5477.91 0 0)
(-5474.95 0 0)
(-5470.72 0 0)
(-5464.59 0 0)
(-5455.45 0 0)
(-5441.59 0 0)
(-5420.77 0 0)
(-5392.58 0 0)
(-5355.3 0 0)
(-5307.75 0 0)
(-5248.9 0 0)
(-5180.99 0 0)
(-5109.5 0 0)
(-5080.9 0 0)
(-5199.75 0 0)
(-6267.62 0 0)
(-5943.93 0 0)
(-1255.67 0 0)
(-1445.54 0 0)
(-2248.15 0 0)
(-3069.95 0 0)
(-3589.12 0 0)
(-4145.09 0 0)
(-4687.1 0 0)
(-5157.48 0 0)
(-5569.66 0 0)
(-5938.26 0 0)
(-6275.61 0 0)
(-6579.59 0 0)
(-6846.66 0 0)
(-7077.06 0 0)
(-7271.83 0 0)
(-7432.54 0 0)
(-7566.06 0 0)
(-7676.56 0 0)
(-7767.05 0 0)
(-7839.3 0 0)
(-7897.03 0 0)
(-7946.14 0 0)
(-7986.3 0 0)
(-8017.17 0 0)
(-8040.65 0 0)
(-8059.11 0 0)
(-8074.21 0 0)
(-8084.49 0 0)
(-8094.32 0 0)
(-8100.8 0 0)
(-8106.25 0 0)
(-8109.15 0 0)
(-8112 0 0)
(-8113.52 0 0)
(-8115.79 0 0)
(-8116.63 0 0)
(-8117.4 0 0)
(-8118.04 0 0)
(-8118.54 0 0)
(-8118.95 0 0)
(-8118.92 0 0)
(-8119.17 0 0)
(-8119.34 0 0)
(-8119.2 0 0)
(-8119.13 0 0)
(-8118.88 0 0)
(-8119.58 0 0)
(-8119.34 0 0)
(-8119.29 0 0)
(-8119.16 0 0)
(-8119.32 0 0)
(-8119.15 0 0)
(-8119.37 0 0)
(-8119.37 0 0)
(-8119.55 0 0)
(-8119.03 0 0)
(-8119.18 0 0)
(-8118.72 0 0)
(-8119.6 0 0)
(-8119.34 0 0)
(-8119.28 0 0)
(-8119.37 0 0)
(-8119.51 0 0)
(-8119.7 0 0)
(-8119.11 0 0)
(-8119.24 0 0)
(-8118.76 0 0)
(-8119.63 0 0)
(-8119.39 0 0)
(-8119.38 0 0)
(-8119.73 0 0)
(-8118.95 0 0)
(-8119.06 0 0)
(-8118.65 0 0)
(-8119.28 0 0)
(-8119.11 0 0)
(-8118.92 0 0)
(-8118.69 0 0)
(-8118.41 0 0)
(-8117.9 0 0)
(-8116.64 0 0)
(-8115.25 0 0)
(-8113.14 0 0)
(-8110.57 0 0)
(-8105.97 0 0)
(-8099.22 0 0)
(-8089.21 0 0)
(-8074.26 0 0)
(-8051.84 0 0)
(-8018.91 0 0)
(-7972.98 0 0)
(-7910.26 0 0)
(-7825.52 0 0)
(-7713.25 0 0)
(-7568.52 0 0)
(-7383.73 0 0)
(-7182.53 0 0)
(-7028.6 0 0)
(-7788.62 0 0)
(-6125.45 0 0)
(-1325.89 0 0)
(-1650.93 0 0)
(-2589.77 0 0)
(-3547.73 0 0)
(-4219.76 0 0)
(-4935.36 0 0)
(-5637 0 0)
(-6265.59 0 0)
(-6833.83 0 0)
(-7350.34 0 0)
(-7820.51 0 0)
(-8241.59 0 0)
(-8611.12 0 0)
(-8931.08 0 0)
(-9202.32 0 0)
(-9428.12 0 0)
(-9615.73 0 0)
(-9770.78 0 0)
(-9897.43 0 0)
(-9998.98 0 0)
(-10080.2 0 0)
(-10147.2 0 0)
(-10201.2 0 0)
(-10243.1 0 0)
(-10275.3 0 0)
(-10300.2 0 0)
(-10319.9 0 0)
(-10335.2 0 0)
(-10347.4 0 0)
(-10356 0 0)
(-10362.5 0 0)
(-10366.5 0 0)
(-10369.8 0 0)
(-10372.7 0 0)
(-10375.2 0 0)
(-10376.5 0 0)
(-10377.4 0 0)
(-10378.2 0 0)
(-10378.8 0 0)
(-10379.2 0 0)
(-10379.2 0 0)
(-10379.3 0 0)
(-10379.6 0 0)
(-10379.4 0 0)
(-10379.1 0 0)
(-10379.4 0 0)
(-10380.1 0 0)
(-10380 0 0)
(-10380 0 0)
(-10379.9 0 0)
(-10379.9 0 0)
(-10380 0 0)
(-10380 0 0)
(-10380 0 0)
(-10380 0 0)
(-10379.5 0 0)
(-10379.2 0 0)
(-10379.5 0 0)
(-10380.1 0 0)
(-10380 0 0)
(-10379.9 0 0)
(-10380 0 0)
(-10380.1 0 0)
(-10380.1 0 0)
(-10379.5 0 0)
(-10379.2 0 0)
(-10379.5 0 0)
(-10380.2 0 0)
(-10380 0 0)
(-10380 0 0)
(-10380.1 0 0)
(-10379.5 0 0)
(-10379.1 0 0)
(-10379.2 0 0)
(-10379.7 0 0)
(-10379.5 0 0)
(-10379.3 0 0)
(-10379 0 0)
(-10378.5 0 0)
(-10377.7 0 0)
(-10376 0 0)
(-10373.9 0 0)
(-10371.5 0 0)
(-10367.8 0 0)
(-10361.6 0 0)
(-10352.5 0 0)
(-10338.9 0 0)
(-10318.6 0 0)
(-10288.4 0 0)
(-10244.2 0 0)
(-10181.7 0 0)
(-10094.5 0 0)
(-9973.79 0 0)
(-9808.87 0 0)
(-9586.16 0 0)
(-9280.67 0 0)
(-8886.65 0 0)
(-8426.15 0 0)
(-8807.59 0 0)
(-5981.54 0 0)
(-1375.41 0 0)
(-1798.36 0 0)
(-2838.33 0 0)
(-3899.94 0 0)
(-4692.95 0 0)
(-5537.43 0 0)
(-6371.12 0 0)
(-7133.32 0 0)
(-7834.96 0 0)
(-8478.73 0 0)
(-9063.72 0 0)
(-9586.4 0 0)
(-10045.1 0 0)
(-10442.4 0 0)
(-10779.9 0 0)
(-11062 0 0)
(-11296.5 0 0)
(-11490 0 0)
(-11647.8 0 0)
(-11774.6 0 0)
(-11876.2 0 0)
(-11958.5 0 0)
(-12024.4 0 0)
(-12075.8 0 0)
(-12115.4 0 0)
(-12145.9 0 0)
(-12169.8 0 0)
(-12188.6 0 0)
(-12203 0 0)
(-12213.3 0 0)
(-12220.9 0 0)
(-12226 0 0)
(-12229.9 0 0)
(-12233.5 0 0)
(-12236.4 0 0)
(-12237.9 0 0)
(-12239.1 0 0)
(-12240 0 0)
(-12240.6 0 0)
(-12241.1 0 0)
(-12241.2 0 0)
(-12241.2 0 0)
(-12241.5 0 0)
(-12241.4 0 0)
(-12241.1 0 0)
(-12241.5 0 0)
(-12242.2 0 0)
(-12242.2 0 0)
(-12242.2 0 0)
(-12242.1 0 0)
(-12242.1 0 0)
(-12242.2 0 0)
(-12242.2 0 0)
(-12242.2 0 0)
(-12242.1 0 0)
(-12241.5 0 0)
(-12241.2 0 0)
(-12241.7 0 0)
(-12242.2 0 0)
(-12242.1 0 0)
(-12242 0 0)
(-12242.1 0 0)
(-12242.2 0 0)
(-12242.1 0 0)
(-12241.6 0 0)
(-12241.2 0 0)
(-12241.7 0 0)
(-12242.3 0 0)
(-12242.2 0 0)
(-12242.1 0 0)
(-12242.1 0 0)
(-12241.6 0 0)
(-12241.1 0 0)
(-12241.3 0 0)
(-12241.7 0 0)
(-12241.5 0 0)
(-12241.2 0 0)
(-12240.8 0 0)
(-12240.2 0 0)
(-12239.1 0 0)
(-12237.2 0 0)
(-12234.7 0 0)
(-12231.7 0 0)
(-12227 0 0)
(-12219.4 0 0)
(-12208.1 0 0)
(-12191.3 0 0)
(-12166.3 0 0)
(-12129.1 0 0)
(-12074.8 0 0)
(-11997.3 0 0)
(-11887.6 0 0)
(-11733.3 0 0)
(-11518.2 0 0)
(-11219.1 0 0)
(-10791.6 0 0)
(-10200.1 0 0)
(-9435.64 0 0)
(-9454.1 0 0)
(-5738.32 0 0)
(-1407.25 0 0)
(-1896.41 0 0)
(-3008.01 0 0)
(-4144.11 0 0)
(-5028.1 0 0)
(-5971.78 0 0)
(-6909.66 0 0)
(-7779.57 0 0)
(-8590.29 0 0)
(-9338.74 0 0)
(-10018.4 0 0)
(-10625 0 0)
(-11157.3 0 0)
(-11618.2 0 0)
(-12010.1 0 0)
(-12338.5 0 0)
(-12611.5 0 0)
(-12836.5 0 0)
(-13019.8 0 0)
(-13167.4 0 0)
(-13285.5 0 0)
(-13380.5 0 0)
(-13456.1 0 0)
(-13515.2 0 0)
(-13560.8 0 0)
(-13595.9 0 0)
(-13623.1 0 0)
(-13644.6 0 0)
(-13660.8 0 0)
(-13672.5 0 0)
(-13681.1 0 0)
(-13687.1 0 0)
(-13691.6 0 0)
(-13695.7 0 0)
(-13698.8 0 0)
(-13700.6 0 0)
(-13701.9 0 0)
(-13702.9 0 0)
(-13703.6 0 0)
(-13704.1 0 0)
(-13704.2 0 0)
(-13704.3 0 0)
(-13704.6 0 0)
(-13704.5 0 0)
(-13704.3 0 0)
(-13704.8 0 0)
(-13705.3 0 0)
(-13705.4 0 0)
(-13705.4 0 0)
(-13705.3 0 0)
(-13705.3 0 0)
(-13705.4 0 0)
(-13705.5 0 0)
(-13705.4 0 0)
(-13705.2 0 0)
(-13704.7 0 0)
(-13704.5 0 0)
(-13704.9 0 0)
(-13705.4 0 0)
(-13705.3 0 0)
(-13705.3 0 0)
(-13705.3 0 0)
(-13705.3 0 0)
(-13705.2 0 0)
(-13704.8 0 0)
(-13704.5 0 0)
(-13705 0 0)
(-13705.4 0 0)
(-13705.4 0 0)
(-13705.3 0 0)
(-13705.2 0 0)
(-13704.8 0 0)
(-13704.4 0 0)
(-13704.5 0 0)
(-13704.8 0 0)
(-13704.6 0 0)
(-13704.3 0 0)
(-13703.8 0 0)
(-13703 0 0)
(-13701.7 0 0)
(-13699.6 0 0)
(-13696.8 0 0)
(-13693.2 0 0)
(-13687.7 0 0)
(-13678.9 0 0)
(-13665.8 0 0)
(-13646.3 0 0)
(-13617.2 0 0)
(-13574.2 0 0)
(-13511.3 0 0)
(-13420.8 0 0)
(-13291.5 0 0)
(-13107.4 0 0)
(-12847 0 0)
(-12477.5 0 0)
(-11935.7 0 0)
(-11161.3 0 0)
(-10126.6 0 0)
(-9852.93 0 0)
(-5505.73 0 0)
(-1424.83 0 0)
(-1955.31 0 0)
(-3115.09 0 0)
(-4300.39 0 0)
(-5248.11 0 0)
(-6263.18 0 0)
(-7277.81 0 0)
(-8229.05 0 0)
(-9123.68 0 0)
(-9953.14 0 0)
(-10706 0 0)
(-11377.1 0 0)
(-11966 0 0)
(-12475.5 0 0)
(-12909.1 0 0)
(-13272.8 0 0)
(-13575.2 0 0)
(-13824.2 0 0)
(-14027 0 0)
(-14190.3 0 0)
(-14321 0 0)
(-14425.6 0 0)
(-14508.5 0 0)
(-14573.4 0 0)
(-14623.5 0 0)
(-14662.1 0 0)
(-14692 0 0)
(-14715.3 0 0)
(-14732.8 0 0)
(-14745.7 0 0)
(-14755.1 0 0)
(-14761.7 0 0)
(-14766.8 0 0)
(-14771.1 0 0)
(-14774.3 0 0)
(-14776.3 0 0)
(-14777.8 0 0)
(-14778.8 0 0)
(-14779.6 0 0)
(-14780.1 0 0)
(-14780.3 0 0)
(-14780.4 0 0)
(-14780.7 0 0)
(-14780.6 0 0)
(-14780.5 0 0)
(-14780.9 0 0)
(-14781.4 0 0)
(-14781.6 0 0)
(-14781.6 0 0)
(-14781.5 0 0)
(-14781.5 0 0)
(-14781.6 0 0)
(-14781.6 0 0)
(-14781.5 0 0)
(-14781.4 0 0)
(-14781 0 0)
(-14780.7 0 0)
(-14781.1 0 0)
(-14781.5 0 0)
(-14781.5 0 0)
(-14781.4 0 0)
(-14781.5 0 0)
(-14781.5 0 0)
(-14781.4 0 0)
(-14781 0 0)
(-14780.7 0 0)
(-14781.2 0 0)
(-14781.6 0 0)
(-14781.5 0 0)
(-14781.4 0 0)
(-14781.3 0 0)
(-14780.9 0 0)
(-14780.6 0 0)
(-14780.7 0 0)
(-14780.9 0 0)
(-14780.7 0 0)
(-14780.3 0 0)
(-14779.8 0 0)
(-14778.9 0 0)
(-14777.5 0 0)
(-14775.3 0 0)
(-14772.2 0 0)
(-14768.2 0 0)
(-14761.9 0 0)
(-14752.2 0 0)
(-14737.7 0 0)
(-14716.1 0 0)
(-14683.9 0 0)
(-14636.2 0 0)
(-14566.6 0 0)
(-14465.7 0 0)
(-14320.5 0 0)
(-14112.1 0 0)
(-13814.3 0 0)
(-13385.6 0 0)
(-12747.5 0 0)
(-11821.4 0 0)
(-10572.5 0 0)
(-10095 0 0)
(-5325.32 0 0)
(-1431.37 0 0)
(-1984.94 0 0)
(-3174.92 0 0)
(-4387.94 0 0)
(-5374.95 0 0)
(-6435.58 0 0)
(-7500.12 0 0)
(-8506.11 0 0)
(-9459.02 0 0)
(-10345.1 0 0)
(-11148.5 0 0)
(-11863.9 0 0)
(-12491.2 0 0)
(-13033.6 0 0)
(-13495.3 0 0)
(-13882.9 0 0)
(-14205 0 0)
(-14470.2 0 0)
(-14686.1 0 0)
(-14860 0 0)
(-14999.1 0 0)
(-15110.2 0 0)
(-15198 0 0)
(-15266.7 0 0)
(-15319.8 0 0)
(-15360.8 0 0)
(-15392.4 0 0)
(-15416.9 0 0)
(-15435.3 0 0)
(-15448.9 0 0)
(-15458.9 0 0)
(-15466 0 0)
(-15471.4 0 0)
(-15475.8 0 0)
(-15479.2 0 0)
(-15481.3 0 0)
(-15482.9 0 0)
(-15484 0 0)
(-15484.8 0 0)
(-15485.3 0 0)
(-15485.5 0 0)
(-15485.7 0 0)
(-15485.9 0 0)
(-15485.9 0 0)
(-15485.9 0 0)
(-15486.2 0 0)
(-15486.6 0 0)
(-15486.8 0 0)
(-15486.9 0 0)
(-15486.8 0 0)
(-15486.8 0 0)
(-15486.9 0 0)
(-15486.9 0 0)
(-15486.8 0 0)
(-15486.6 0 0)
(-15486.3 0 0)
(-15486.1 0 0)
(-15486.5 0 0)
(-15486.8 0 0)
(-15486.8 0 0)
(-15486.7 0 0)
(-15486.7 0 0)
(-15486.7 0 0)
(-15486.6 0 0)
(-15486.3 0 0)
(-15486.1 0 0)
(-15486.5 0 0)
(-15486.8 0 0)
(-15486.8 0 0)
(-15486.7 0 0)
(-15486.5 0 0)
(-15486.2 0 0)
(-15486 0 0)
(-15486.1 0 0)
(-15486.1 0 0)
(-15485.9 0 0)
(-15485.5 0 0)
(-15484.9 0 0)
(-15484 0 0)
(-15482.5 0 0)
(-15480.2 0 0)
(-15477 0 0)
(-15472.6 0 0)
(-15465.9 0 0)
(-15455.5 0 0)
(-15440 0 0)
(-15416.9 0 0)
(-15382.6 0 0)
(-15331.8 0 0)
(-15257.5 0 0)
(-15149.4 0 0)
(-14993.2 0 0)
(-14767.5 0 0)
(-14442.7 0 0)
(-13971.1 0 0)
(-13263.3 0 0)
(-12229.4 0 0)
(-10835 0 0)
(-10236.3 0 0)
(-5207.97 0 0)
(-1432.24 0 0)
(-1996.58 0 0)
(-3201.62 0 0)
(-4426.4 0 0)
(-5431.95 0 0)
(-6514.03 0 0)
(-7602.2 0 0)
(-8636.13 0 0)
(-9620.85 0 0)
(-10537.8 0 0)
(-11367.8 0 0)
(-12105.4 0 0)
(-12751.7 0 0)
(-13310.2 0 0)
(-13785.6 0 0)
(-14184.8 0 0)
(-14516.7 0 0)
(-14789.7 0 0)
(-15012 0 0)
(-15191.1 0 0)
(-15334.5 0 0)
(-15448.7 0 0)
(-15538.9 0 0)
(-15609.5 0 0)
(-15664.1 0 0)
(-15706.2 0 0)
(-15738.6 0 0)
(-15763.6 0 0)
(-15782.5 0 0)
(-15796.5 0 0)
(-15806.7 0 0)
(-15814.1 0 0)
(-15819.7 0 0)
(-15824.1 0 0)
(-15827.5 0 0)
(-15829.8 0 0)
(-15831.3 0 0)
(-15832.5 0 0)
(-15833.3 0 0)
(-15833.8 0 0)
(-15834.1 0 0)
(-15834.3 0 0)
(-15834.5 0 0)
(-15834.5 0 0)
(-15834.5 0 0)
(-15834.9 0 0)
(-15835.2 0 0)
(-15835.4 0 0)
(-15835.4 0 0)
(-15835.4 0 0)
(-15835.4 0 0)
(-15835.4 0 0)
(-15835.5 0 0)
(-15835.4 0 0)
(-15835.2 0 0)
(-15834.9 0 0)
(-15834.8 0 0)
(-15835.1 0 0)
(-15835.4 0 0)
(-15835.4 0 0)
(-15835.3 0 0)
(-15835.3 0 0)
(-15835.3 0 0)