/*--------------------------------*- C++ -*----------------------------------*\
| =========                 |                                                 |
| \\      /  F ield         | foam-extend: Open Source CFD                    |
|  \\    /   O peration     | Version:     5.0                                |
|   \\  /    A nd           | Web:         http://www.foam-extend.org         |
|    \\/     M anipulation  |                                                 |
\*---------------------------------------------------------------------------*/
FoamFile
{
    version     2.0;
    format      ascii;
    class       volVectorField;
    location    "0.04";
    object      currentDensity;
}
// * * * * * * * * * * * * * * * * * * * * * * * * * * * * * * * * * * * * * //

dimensions      [0 -2 0 0 0 1 0];

internalField   nonuniform List<vector> 
4000
(
(0 0 -1.093)
(0 0 -13.9289)
(0 0 -24.6218)
(0 0 -36.5541)
(0 0 -48.1663)
(0 0 -58.0603)
(0 0 -66.6951)
(0 0 -74.2583)
(0 0 -81.8011)
(0 0 -88.9489)
(0 0 -94.7586)
(0 0 -98.2718)
(0 0 -101.113)
(0 0 -103.846)
(0 0 -106.617)
(0 0 -109.402)
(0 0 -111.514)
(0 0 -113.518)
(0 0 -115.108)
(0 0 -116.549)
(0 0 -117.684)
(0 0 -118.558)
(0 0 -119.166)
(0 0 -119.781)
(0 0 -120.331)
(0 0 -120.695)
(0 0 -120.926)
(0 0 -121.14)
(0 0 -121.314)
(0 0 -121.457)
(0 0 -121.576)
(0 0 -121.673)
(0 0 -121.745)
(0 0 -121.783)
(0 0 -121.808)
(0 0 -121.83)
(0 0 -121.848)
(0 0 -121.861)
(0 0 -121.873)
(0 0 -121.885)
(0 0 -121.897)
(0 0 -121.906)
(0 0 -121.909)
(0 0 -121.915)
(0 0 -121.922)
(0 0 -121.914)
(0 0 -121.902)
(0 0 -121.899)
(0 0 -121.899)
(0 0 -121.897)
(0 0 -121.896)
(0 0 -121.899)
(0 0 -121.901)
(0 0 -121.902)
(0 0 -121.905)
(0 0 -121.914)
(0 0 -121.922)
(0 0 -121.917)
(0 0 -121.908)
(0 0 -121.903)
(0 0 -121.903)
(0 0 -121.903)
(0 0 -121.903)
(0 0 -121.906)
(0 0 -121.914)
(0 0 -121.921)
(0 0 -121.915)
(0 0 -121.906)
(0 0 -121.9)
(0 0 -121.897)
(0 0 -121.898)
(0 0 -121.91)
(0 0 -121.92)
(0 0 -121.912)
(0 0 -121.897)
(0 0 -121.887)
(0 0 -121.878)
(0 0 -121.867)
(0 0 -121.85)
(0 0 -121.826)
(0 0 -121.793)
(0 0 -121.738)
(0 0 -121.643)
(0 0 -121.501)
(0 0 -121.295)
(0 0 -121.005)
(0 0 -120.585)
(0 0 -119.974)
(0 0 -119.111)
(0 0 -117.898)
(0 0 -116.186)
(0 0 -113.761)
(0 0 -110.394)
(0 0 -105.677)
(0 0 -99.3318)
(0 0 -91.1878)
(0 0 -79.7417)
(0 0 -66.8216)
(0 0 -69.2805)
(0 0 -78.2009)
(0 0 -7.06168)
(0 0 -46.6555)
(0 0 -77.4899)
(0 0 -108.281)
(0 0 -138.411)
(0 0 -165.354)
(0 0 -189.18)
(0 0 -210.041)
(0 0 -230.421)
(0 0 -248.837)
(0 0 -264.095)
(0 0 -274.36)
(0 0 -284.588)
(0 0 -293.391)
(0 0 -300.899)
(0 0 -308.851)
(0 0 -314.656)
(0 0 -320.277)
(0 0 -324.647)
(0 0 -328.375)
(0 0 -331.242)
(0 0 -333.776)
(0 0 -335.506)
(0 0 -337.131)
(0 0 -338.471)
(0 0 -339.429)
(0 0 -340.084)
(0 0 -340.655)
(0 0 -341.105)
(0 0 -341.464)
(0 0 -341.755)
(0 0 -341.988)
(0 0 -342.156)
(0 0 -342.26)
(0 0 -342.329)
(0 0 -342.383)
(0 0 -342.43)
(0 0 -342.463)
(0 0 -342.495)
(0 0 -342.52)
(0 0 -342.546)
(0 0 -342.566)
(0 0 -342.573)
(0 0 -342.585)
(0 0 -342.597)
(0 0 -342.583)
(0 0 -342.564)
(0 0 -342.557)
(0 0 -342.556)
(0 0 -342.552)
(0 0 -342.549)
(0 0 -342.555)
(0 0 -342.561)
(0 0 -342.564)
(0 0 -342.57)
(0 0 -342.585)
(0 0 -342.597)
(0 0 -342.591)
(0 0 -342.575)
(0 0 -342.567)
(0 0 -342.566)
(0 0 -342.566)
(0 0 -342.567)
(0 0 -342.572)
(0 0 -342.585)
(0 0 -342.595)
(0 0 -342.587)
(0 0 -342.572)
(0 0 -342.56)
(0 0 -342.553)
(0 0 -342.555)
(0 0 -342.575)
(0 0 -342.593)
(0 0 -342.58)
(0 0 -342.554)
(0 0 -342.534)
(0 0 -342.515)
(0 0 -342.492)
(0 0 -342.457)
(0 0 -342.408)
(0 0 -342.34)
(0 0 -342.225)
(0 0 -342.035)
(0 0 -341.748)
(0 0 -341.33)
(0 0 -340.736)
(0 0 -339.866)
(0 0 -338.611)
(0 0 -336.82)
(0 0 -334.278)
(0 0 -330.619)
(0 0 -325.438)
(0 0 -318.31)
(0 0 -308.245)
(0 0 -294.769)
(0 0 -277.287)
(0 0 -253.83)
(0 0 -230.655)
(0 0 -232.257)
(0 0 -234.602)
(0 0 -10.6726)
(0 0 -71.6626)
(0 0 -118.308)
(0 0 -162.445)
(0 0 -205.624)
(0 0 -245.139)
(0 0 -280.513)
(0 0 -311.942)
(0 0 -341.253)
(0 0 -367.011)
(0 0 -388.435)
(0 0 -402.666)
(0 0 -421.641)
(0 0 -436.291)
(0 0 -448.836)
(0 0 -459.824)
(0 0 -468.726)
(0 0 -476.304)
(0 0 -482.517)
(0 0 -487.597)
(0 0 -491.952)
(0 0 -495.286)
(0 0 -497.784)
(0 0 -499.972)
(0 0 -501.714)
(0 0 -503.029)
(0 0 -503.971)
(0 0 -504.748)
(0 0 -505.354)
(0 0 -505.825)
(0 0 -506.197)
(0 0 -506.49)
(0 0 -506.701)
(0 0 -506.839)
(0 0 -506.924)
(0 0 -506.99)
(0 0 -507.062)
(0 0 -507.108)
(0 0 -507.146)
(0 0 -507.176)
(0 0 -507.205)
(0 0 -507.229)
(0 0 -507.237)
(0 0 -507.251)
(0 0 -507.265)
(0 0 -507.25)
(0 0 -507.229)
(0 0 -507.222)
(0 0 -507.223)
(0 0 -507.218)
(0 0 -507.213)
(0 0 -507.22)
(0 0 -507.228)
(0 0 -507.231)
(0 0 -507.236)
(0 0 -507.251)
(0 0 -507.264)
(0 0 -507.258)
(0 0 -507.24)
(0 0 -507.234)
(0 0 -507.233)
(0 0 -507.233)
(0 0 -507.234)
(0 0 -507.238)
(0 0 -507.252)
(0 0 -507.263)
(0 0 -507.255)
(0 0 -507.239)
(0 0 -507.226)
(0 0 -507.218)
(0 0 -507.218)
(0 0 -507.241)
(0 0 -507.263)
(0 0 -507.248)
(0 0 -507.22)
(0 0 -507.198)
(0 0 -507.177)
(0 0 -507.152)
(0 0 -507.114)
(0 0 -507.06)
(0 0 -506.987)
(0 0 -506.858)
(0 0 -506.653)
(0 0 -506.34)
(0 0 -505.884)
(0 0 -505.234)
(0 0 -504.261)
(0 0 -502.886)
(0 0 -500.905)
(0 0 -498.066)
(0 0 -493.818)
(0 0 -487.853)
(0 0 -479.905)
(0 0 -468.337)
(0 0 -453.133)
(0 0 -433.115)
(0 0 -406.031)
(0 0 -378.448)
(0 0 -367.14)
(0 0 -346.853)
(0 0 -10.8329)
(0 0 -85.6531)
(0 0 -141.526)
(0 0 -193.758)
(0 0 -245.174)
(0 0 -292.728)
(0 0 -335.757)
(0 0 -374.209)
(0 0 -409.669)
(0 0 -438.782)
(0 0 -462.863)
(0 0 -478.762)
(0 0 -508.538)
(0 0 -528.1)
(0 0 -544.193)
(0 0 -557.608)
(0 0 -568.629)
(0 0 -577.715)
(0 0 -585.213)
(0 0 -591.003)
(0 0 -596.418)
(0 0 -600.4)
(0 0 -603.417)
(0 0 -606.004)
(0 0 -607.888)
(0 0 -609.496)
(0 0 -610.662)
(0 0 -611.596)
(0 0 -612.305)
(0 0 -612.847)
(0 0 -613.258)
(0 0 -613.579)
(0 0 -613.816)
(0 0 -613.976)
(0 0 -614.055)
(0 0 -614.162)
(0 0 -614.237)
(0 0 -614.289)
(0 0 -614.33)
(0 0 -614.361)
(0 0 -614.391)
(0 0 -614.418)
(0 0 -614.426)
(0 0 -614.44)
(0 0 -614.457)
(0 0 -614.441)
(0 0 -614.418)
(0 0 -614.414)
(0 0 -614.415)
(0 0 -614.411)
(0 0 -614.403)
(0 0 -614.41)
(0 0 -614.42)
(0 0 -614.423)
(0 0 -614.428)
(0 0 -614.444)
(0 0 -614.455)
(0 0 -614.449)
(0 0 -614.432)
(0 0 -614.426)
(0 0 -614.425)
(0 0 -614.425)
(0 0 -614.426)
(0 0 -614.429)
(0 0 -614.444)
(0 0 -614.456)
(0 0 -614.447)
(0 0 -614.429)
(0 0 -614.418)
(0 0 -614.41)
(0 0 -614.407)
(0 0 -614.432)
(0 0 -614.457)
(0 0 -614.442)
(0 0 -614.411)
(0 0 -614.39)
(0 0 -614.37)
(0 0 -614.346)
(0 0 -614.308)
(0 0 -614.256)
(0 0 -614.186)
(0 0 -614.051)
(0 0 -613.86)
(0 0 -613.548)
(0 0 -613.106)
(0 0 -612.472)
(0 0 -611.464)
(0 0 -610.145)
(0 0 -608.197)
(0 0 -605.367)
(0 0 -601.249)
(0 0 -595.197)
(0 0 -586.745)
(0 0 -574.542)
(0 0 -559.682)
(0 0 -539.306)
(0 0 -510.733)
(0 0 -479.089)
(0 0 -454.556)
(0 0 -416.247)
(0 0 -7.2021)
(0 0 -88.1719)
(0 0 -146.32)
(0 0 -201.06)
(0 0 -255.945)
(0 0 -306.983)
(0 0 -353.594)
(0 0 -395.475)
(0 0 -434.157)
(0 0 -460.417)
(0 0 -482.152)
(0 0 -518.104)
(0 0 -545.563)
(0 0 -566.903)
(0 0 -584.788)
(0 0 -599.653)
(0 0 -611.919)
(0 0 -621.971)
(0 0 -630.215)
(0 0 -636.946)
(0 0 -642.284)
(0 0 -646.702)
(0 0 -650.057)
(0 0 -652.908)
(0 0 -654.507)
(0 0 -656.546)
(0 0 -657.928)
(0 0 -658.981)
(0 0 -659.753)
(0 0 -660.334)
(0 0 -660.744)
(0 0 -661.066)
(0 0 -661.321)
(0 0 -661.509)
(0 0 -661.628)
(0 0 -661.72)
(0 0 -661.802)
(0 0 -661.858)
(0 0 -661.9)
(0 0 -661.926)
(0 0 -661.957)
(0 0 -661.989)
(0 0 -661.996)
(0 0 -662.012)
(0 0 -662.033)
(0 0 -662.014)
(0 0 -661.986)
(0 0 -661.985)
(0 0 -661.989)
(0 0 -661.987)
(0 0 -661.972)
(0 0 -661.983)
(0 0 -661.993)
(0 0 -661.997)
(0 0 -662.001)
(0 0 -662.02)
(0 0 -662.026)
(0 0 -662.02)
(0 0 -662.001)
(0 0 -661.998)
(0 0 -661.998)
(0 0 -661.999)
(0 0 -661.999)
(0 0 -662.001)
(0 0 -662.019)
(0 0 -662.032)
(0 0 -662.019)
(0 0 -661.997)
(0 0 -661.991)
(0 0 -661.983)
(0 0 -661.977)
(0 0 -662.005)
(0 0 -662.032)
(0 0 -662.016)
(0 0 -661.983)
(0 0 -661.964)
(0 0 -661.944)
(0 0 -661.922)
(0 0 -661.883)
(0 0 -661.836)
(0 0 -661.774)
(0 0 -661.658)
(0 0 -661.465)
(0 0 -661.146)
(0 0 -660.74)
(0 0 -660.141)
(0 0 -659.019)
(0 0 -657.893)
(0 0 -656.012)
(0 0 -653.304)
(0 0 -649.216)
(0 0 -642.956)
(0 0 -634.037)
(0 0 -620.782)
(0 0 -608.274)
(0 0 -588.281)
(0 0 -558.954)
(0 0 -523.417)
(0 0 -489.833)
(0 0 -441.566)
(0 0 -0.130252)
(0 0 -80.2729)
(0 0 -134.319)
(0 0 -185.791)
(0 0 -239.373)
(0 0 -289.389)
(0 0 -335.497)
(0 0 -377.236)
(0 0 -416.267)
(0 0 -440.674)
(0 0 -475.47)
(0 0 -506.368)
(0 0 -531.951)
(0 0 -553.233)
(0 0 -571.381)
(0 0 -586.616)
(0 0 -599.246)
(0 0 -609.597)
(0 0 -618.023)
(0 0 -625.02)
(0 0 -629.576)
(0 0 -634.605)
(0 0 -638.194)
(0 0 -641.155)
(0 0 -641.433)
(0 0 -644.675)
(0 0 -646.251)
(0 0 -647.349)
(0 0 -648.125)
(0 0 -648.707)
(0 0 -649.045)
(0 0 -649.325)
(0 0 -649.611)
(0 0 -649.871)
(0 0 -650.001)
(0 0 -650.067)
(0 0 -650.171)
(0 0 -650.23)
(0 0 -650.27)
(0 0 -650.291)
(0 0 -650.33)
(0 0 -650.359)
(0 0 -650.361)
(0 0 -650.38)
(0 0 -650.403)
(0 0 -650.381)
(0 0 -650.351)
(0 0 -650.352)
(0 0 -650.358)
(0 0 -650.359)
(0 0 -650.348)
(0 0 -650.354)
(0 0 -650.36)
(0 0 -650.365)
(0 0 -650.368)
(0 0 -650.391)
(0 0 -650.403)
(0 0 -650.388)
(0 0 -650.363)
(0 0 -650.364)
(0 0 -650.367)
(0 0 -650.367)
(0 0 -650.367)
(0 0 -650.368)
(0 0 -650.39)
(0 0 -650.403)
(0 0 -650.386)
(0 0 -650.356)
(0 0 -650.358)
(0 0 -650.35)
(0 0 -650.341)
(0 0 -650.374)
(0 0 -650.402)
(0 0 -650.384)
(0 0 -650.348)
(0 0 -650.332)
(0 0 -650.312)
(0 0 -650.294)
(0 0 -650.25)
(0 0 -650.214)
(0 0 -650.163)
(0 0 -650.062)
(0 0 -649.878)
(0 0 -649.518)
(0 0 -649.201)
(0 0 -648.661)
(0 0 -647.763)
(0 0 -646.595)
(0 0 -644.71)
(0 0 -642.177)
(0 0 -638.442)
(0 0 -630.975)
(0 0 -623.783)
(0 0 -613.744)
(0 0 -600.159)
(0 0 -580.598)
(0 0 -551.538)
(0 0 -513.93)
(0 0 -475.723)
(0 0 -421.385)
(0 0 8.95693)
(0 0 -64.366)
(0 0 -109.665)
(0 0 -153.068)
(0 0 -201.321)
(0 0 -246.479)
(0 0 -288.474)
(0 0 -326.883)
(0 0 -363.409)
(0 0 -381.582)
(0 0 -422.764)
(0 0 -450.945)
(0 0 -474.191)
(0 0 -494.029)
(0 0 -511.111)
(0 0 -525.593)
(0 0 -537.639)
(0 0 -547.52)
(0 0 -555.516)
(0 0 -562.175)
(0 0 -564.039)
(0 0 -570.909)
(0 0 -574.59)
(0 0 -577.462)
(0 0 -578.969)
(0 0 -580.966)
(0 0 -582.284)
(0 0 -583.27)
(0 0 -583.966)
(0 0 -584.513)
(0 0 -584.894)
(0 0 -585.203)
(0 0 -585.439)
(0 0 -585.613)
(0 0 -585.714)
(0 0 -585.802)
(0 0 -585.877)
(0 0 -585.928)
(0 0 -585.961)
(0 0 -585.983)
(0 0 -586.02)
(0 0 -586.042)
(0 0 -586.039)
(0 0 -586.061)
(0 0 -586.084)
(0 0 -586.062)
(0 0 -586.032)
(0 0 -586.036)
(0 0 -586.044)
(0 0 -586.049)
(0 0 -586.039)
(0 0 -586.044)
(0 0 -586.045)
(0 0 -586.05)
(0 0 -586.051)
(0 0 -586.08)
(0 0 -586.087)
(0 0 -586.071)
(0 0 -586.04)
(0 0 -586.048)
(0 0 -586.052)
(0 0 -586.052)
(0 0 -586.05)
(0 0 -586.049)
(0 0 -586.077)
(0 0 -586.085)
(0 0 -586.068)
(0 0 -586.036)
(0 0 -586.043)
(0 0 -586.039)
(0 0 -586.017)
(0 0 -586.061)
(0 0 -586.081)
(0 0 -586.065)
(0 0 -586.028)
(0 0 -586.018)
(0 0 -586.005)
(0 0 -585.985)
(0 0 -585.95)
(0 0 -585.913)
(0 0 -585.873)
(0 0 -585.784)
(0 0 -585.621)
(0 0 -585.351)
(0 0 -585.033)
(0 0 -584.551)
(0 0 -583.8)
(0 0 -582.726)
(0 0 -580.643)
(0 0 -578.412)
(0 0 -575.064)
(0 0 -569.948)
(0 0 -563.505)
(0 0 -554.225)
(0 0 -541.203)
(0 0 -522.851)
(0 0 -495.345)
(0 0 -458.016)
(0 0 -418.71)
(0 0 -359.554)
(0 0 18.7456)
(0 0 -43.5302)
(0 0 -77.0098)
(0 0 -108.769)
(0 0 -148.588)
(0 0 -185.849)
(0 0 -220.749)
(0 0 -253.062)
(0 0 -284.658)
(0 0 -309.526)
(0 0 -339.087)
(0 0 -362.437)
(0 0 -381.957)
(0 0 -399.245)
(0 0 -414.13)
(0 0 -426.847)
(0 0 -437.435)
(0 0 -446.125)
(0 0 -453.144)
(0 0 -459.026)
(0 0 -462.524)
(0 0 -466.869)
(0 0 -469.855)
(0 0 -472.307)
(0 0 -473.976)
(0 0 -475.444)
(0 0 -476.455)
(0 0 -477.264)
(0 0 -477.806)
(0 0 -478.295)
(0 0 -478.651)
(0 0 -478.943)
(0 0 -479.115)
(0 0 -479.258)
(0 0 -479.317)
(0 0 -479.412)
(0 0 -479.468)
(0 0 -479.51)
(0 0 -479.529)
(0 0 -479.546)
(0 0 -479.585)
(0 0 -479.591)
(0 0 -479.589)
(0 0 -479.616)
(0 0 -479.618)
(0 0 -479.615)
(0 0 -479.589)
(0 0 -479.601)
(0 0 -479.609)
(0 0 -479.617)
(0 0 -479.608)
(0 0 -479.618)
(0 0 -479.608)
(0 0 -479.615)
(0 0 -479.609)
(0 0 -479.643)
(0 0 -479.626)
(0 0 -479.629)
(0 0 -479.591)
(0 0 -479.609)
(0 0 -479.613)
(0 0 -479.612)
(0 0 -479.61)
(0 0 -479.605)
(0 0 -479.639)
(0 0 -479.623)
(0 0 -479.627)
(0 0 -479.588)
(0 0 -479.605)
(0 0 -479.605)
(0 0 -479.586)
(0 0 -479.632)
(0 0 -479.617)
(0 0 -479.618)
(0 0 -479.582)
(0 0 -479.58)
(0 0 -479.573)
(0 0 -479.551)
(0 0 -479.519)
(0 0 -479.492)
(0 0 -479.463)
(0 0 -479.376)
(0 0 -479.25)
(0 0 -479.042)
(0 0 -478.776)
(0 0 -478.369)
(0 0 -477.758)
(0 0 -476.86)
(0 0 -475.372)
(0 0 -472.303)
(0 0 -469.241)
(0 0 -466.144)
(0 0 -461.201)
(0 0 -453.272)
(0 0 -441.789)
(0 0 -425.51)
(0 0 -400.751)
(0 0 -365.548)
(0 0 -325.563)
(0 0 -261.442)
(0 0 28.3793)
(0 0 -20.6338)
(0 0 -40.603)
(0 0 -58.6444)
(0 0 -87.9742)
(0 0 -115.201)
(0 0 -140.773)
(0 0 -165.348)
(0 0 -189.737)
(0 0 -212.317)
(0 0 -233.973)
(0 0 -251.78)
(0 0 -266.152)
(0 0 -280.253)
(0 0 -292.021)
(0 0 -302.13)
(0 0 -310.521)
(0 0 -317.424)
(0 0 -322.993)
(0 0 -327.683)
(0 0 -330.998)
(0 0 -333.997)
(0 0 -336.159)
(0 0 -338.012)
(0 0 -339.412)
(0 0 -340.478)
(0 0 -341.126)
(0 0 -341.768)
(0 0 -342.071)
(0 0 -342.552)
(0 0 -342.826)
(0 0 -343.066)
(0 0 -343.112)
(0 0 -343.296)
(0 0 -343.293)
(0 0 -343.401)
(0 0 -343.435)
(0 0 -343.47)
(0 0 -343.486)
(0 0 -343.493)
(0 0 -343.524)
(0 0 -343.481)
(0 0 -343.506)
(0 0 -343.538)
(0 0 -343.466)
(0 0 -343.535)
(0 0 -343.524)
(0 0 -343.548)
(0 0 -343.549)
(0 0 -343.559)
(0 0 -343.551)
(0 0 -343.577)
(0 0 -343.546)
(0 0 -343.551)
(0 0 -343.537)
(0 0 -343.574)
(0 0 -343.479)
(0 0 -343.566)
(0 0 -343.517)
(0 0 -343.543)
(0 0 -343.546)
(0 0 -343.546)
(0 0 -343.542)
(0 0 -343.531)
(0 0 -343.57)
(0 0 -343.475)
(0 0 -343.563)
(0 0 -343.514)
(0 0 -343.542)
(0 0 -343.544)
(0 0 -343.523)
(0 0 -343.582)
(0 0 -343.467)
(0 0 -343.534)
(0 0 -343.508)
(0 0 -343.517)
(0 0 -343.514)
(0 0 -343.501)
(0 0 -343.476)
(0 0 -343.446)
(0 0 -343.42)
(0 0 -343.307)
(0 0 -343.259)
(0 0 -343.112)
(0 0 -342.919)
(0 0 -342.619)
(0 0 -342.165)
(0 0 -341.471)
(0 0 -340.429)
(0 0 -338.663)
(0 0 -336.412)
(0 0 -333.844)
(0 0 -329.804)
(0 0 -323.512)
(0 0 -314.194)
(0 0 -300.715)
(0 0 -279.585)
(0 0 -247.387)
(0 0 -204.201)
(0 0 -134.074)
(0 0 37.3419)
(0 0 2.03857)
(0 0 -3.70692)
(0 0 -7.35028)
(0 0 -25.0849)
(0 0 -41.064)
(0 0 -56.0026)
(0 0 -71.5729)
(0 0 -88.0377)
(0 0 -103.838)
(0 0 -117.979)
(0 0 -129.571)
(0 0 -137.153)
(0 0 -148.238)
(0 0 -156.16)
(0 0 -163.018)
(0 0 -168.639)
(0 0 -173.334)
(0 0 -177.096)
(0 0 -180.279)
(0 0 -182.658)
(0 0 -184.525)
(0 0 -185.799)
(0 0 -186.963)
(0 0 -187.928)
(0 0 -188.577)
(0 0 -188.725)
(0 0 -189.306)
(0 0 -189.486)
(0 0 -189.833)
(0 0 -189.989)
(0 0 -190.152)
(0 0 -189.925)
(0 0 -190.317)
(0 0 -190.272)
(0 0 -190.356)
(0 0 -190.375)
(0 0 -190.391)
(0 0 -190.397)
(0 0 -190.393)
(0 0 -190.415)
(0 0 -190.253)
(0 0 -190.377)
(0 0 -190.411)
(0 0 -190.125)
(0 0 -190.413)
(0 0 -190.421)
(0 0 -190.46)
(0 0 -190.446)
(0 0 -190.456)
(0 0 -190.448)
(0 0 -190.508)
(0 0 -190.441)
(0 0 -190.445)
(0 0 -190.418)
(0 0 -190.453)
(0 0 -190.141)
(0 0 -190.475)
(0 0 -190.402)
(0 0 -190.436)
(0 0 -190.432)
(0 0 -190.435)
(0 0 -190.43)
(0 0 -190.41)
(0 0 -190.448)
(0 0 -190.137)
(0 0 -190.473)
(0 0 -190.398)
(0 0 -190.437)
(0 0 -190.438)
(0 0 -190.409)
(0 0 -190.494)
(0 0 -190.134)
(0 0 -190.403)
(0 0 -190.392)
(0 0 -190.412)
(0 0 -190.413)
(0 0 -190.405)
(0 0 -190.386)
(0 0 -190.357)
(0 0 -190.316)
(0 0 -190.1)
(0 0 -190.235)
(0 0 -190.149)
(0 0 -190.04)
(0 0 -189.857)
(0 0 -189.574)
(0 0 -189.096)
(0 0 -188.437)
(0 0 -187.578)
(0 0 -186.004)
(0 0 -184.529)
(0 0 -181.781)
(0 0 -177.423)
(0 0 -170.721)
(0 0 -160.628)
(0 0 -143.779)
(0 0 -115.103)
(0 0 -64.8701)
(0 0 11.5878)
(0 0 45.3745)
(0 0 23.2618)
(0 0 31.3796)
(0 0 41.4425)
(0 0 35.8016)
(0 0 31.7197)
(0 0 28.12)
(0 0 22.6224)
(0 0 15.3692)
(0 0 7.8464)
(0 0 1.50229)
(0 0 -3.45609)
(0 0 -6.81367)
(0 0 -11.4915)
(0 0 -15.0064)
(0 0 -18.212)
(0 0 -20.6713)
(0 0 -22.9698)
(0 0 -24.7405)
(0 0 -26.2246)
(0 0 -27.3532)
(0 0 -28.1017)
(0 0 -28.4231)
(0 0 -28.9531)
(0 0 -29.395)
(0 0 -29.6337)
(0 0 -28.9272)
(0 0 -29.8826)
(0 0 -29.8927)
(0 0 -30.0291)
(0 0 -30.054)
(0 0 -30.1282)
(0 0 -29.2958)
(0 0 -30.2529)
(0 0 -30.1267)
(0 0 -30.2)
(0 0 -30.2003)
(0 0 -30.2009)
(0 0 -30.1975)
(0 0 -30.1829)
(0 0 -30.1933)
(0 0 -29.7414)
(0 0 -30.1507)
(0 0 -30.1708)
(0 0 -29.3446)
(0 0 -30.1939)
(0 0 -30.2131)
(0 0 -30.2653)
(0 0 -30.2288)
(0 0 -30.2384)
(0 0 -30.2261)
(0 0 -30.3333)
(0 0 -30.2221)
(0 0 -30.224)
(0 0 -30.1892)
(0 0 -30.2134)
(0 0 -29.3559)
(0 0 -30.2976)
(0 0 -30.1797)
(0 0 -30.2161)
(0 0 -30.1951)
(0 0 -30.2138)
(0 0 -30.2066)
(0 0 -30.1792)
(0 0 -30.2074)
(0 0 -29.3513)
(0 0 -30.296)
(0 0 -30.1712)
(0 0 -30.2187)
(0 0 -30.2192)
(0 0 -30.1795)
(0 0 -30.2909)
(0 0 -29.3603)
(0 0 -30.1653)
(0 0 -30.1729)
(0 0 -30.1984)
(0 0 -30.2026)
(0 0 -30.1991)
(0 0 -30.1864)
(0 0 -30.1613)
(0 0 -30.0606)
(0 0 -29.5648)
(0 0 -30.1245)
(0 0 -30.0952)
(0 0 -30.0743)
(0 0 -30.0221)
(0 0 -29.93)
(0 0 -29.7634)
(0 0 -29.5729)
(0 0 -29.3367)
(0 0 -28.8647)
(0 0 -28.3326)
(0 0 -27.1537)
(0 0 -25.0626)
(0 0 -21.4666)
(0 0 -15.4734)
(0 0 -3.87864)
(0 0 19.6014)
(0 0 77.668)
(0 0 153.214)
(0 0 52.3292)
(0 0 42.3937)
(0 0 63.0104)
(0 0 85.1885)
(0 0 91.199)
(0 0 98.7098)
(0 0 106.132)
(0 0 110.772)
(0 0 113.102)
(0 0 114.438)
(0 0 116.076)
(0 0 117.99)
(0 0 120.015)
(0 0 121.135)
(0 0 122.167)
(0 0 122.798)
(0 0 123.382)
(0 0 123.796)
(0 0 124.129)
(0 0 124.449)
(0 0 124.685)
(0 0 125.051)
(0 0 125.5)
(0 0 125.717)
(0 0 125.863)
(0 0 126.034)
(0 0 126.511)
(0 0 126.268)
(0 0 126.439)
(0 0 126.491)
(0 0 126.592)
(0 0 126.601)
(0 0 126.943)
(0 0 126.587)
(0 0 126.698)
(0 0 126.675)
(0 0 126.693)
(0 0 126.706)
(0 0 126.718)
(0 0 126.737)
(0 0 126.733)
(0 0 126.898)
(0 0 126.762)
(0 0 126.758)
(0 0 127.037)
(0 0 126.718)
(0 0 126.73)
(0 0 126.689)
(0 0 126.709)
(0 0 126.7)
(0 0 126.715)
(0 0 126.645)
(0 0 126.714)
(0 0 126.715)
(0 0 126.744)
(0 0 126.725)
(0 0 127.034)
(0 0 126.652)
(0 0 126.747)
(0 0 126.718)
(0 0 126.723)
(0 0 126.721)
(0 0 126.73)
(0 0 126.755)
(0 0 126.731)
(0 0 127.038)
(0 0 126.654)
(0 0 126.75)
(0 0 126.717)
(0 0 126.718)
(0 0 126.758)
(0 0 126.675)
(0 0 127.027)
(0 0 126.722)
(0 0 126.747)
(0 0 126.728)
(0 0 126.722)
(0 0 126.721)
(0 0 126.725)
(0 0 126.737)
(0 0 126.753)
(0 0 126.904)
(0 0 126.671)
(0 0 126.656)
(0 0 126.592)
(0 0 126.507)
(0 0 126.398)
(0 0 126.245)
(0 0 126.011)
(0 0 125.604)
(0 0 125.124)
(0 0 124.519)
(0 0 123.988)
(0 0 123.661)
(0 0 123.932)
(0 0 125.482)
(0 0 131.27)
(0 0 147.771)
(0 0 208.448)
(0 0 253.025)
(0 0 58.1344)
(0 0 58.8651)
(0 0 90.2371)
(0 0 122.779)
(0 0 139.493)
(0 0 157.808)
(0 0 175.629)
(0 0 190.143)
(0 0 201.971)
(0 0 212.136)
(0 0 221.618)
(0 0 230.344)
(0 0 238.095)
(0 0 244.614)
(0 0 250.119)
(0 0 254.552)
(0 0 258.246)
(0 0 261.295)
(0 0 263.804)
(0 0 265.795)
(0 0 267.398)
(0 0 268.847)
(0 0 270.089)
(0 0 271.001)
(0 0 271.688)
(0 0 272.249)
(0 0 272.799)
(0 0 272.919)
(0 0 273.295)
(0 0 273.505)
(0 0 273.745)
(0 0 273.828)
(0 0 274.001)
(0 0 273.936)
(0 0 274.035)
(0 0 274.056)
(0 0 274.086)
(0 0 274.11)
(0 0 274.129)
(0 0 274.149)
(0 0 274.147)
(0 0 274.199)
(0 0 274.17)
(0 0 274.167)
(0 0 274.233)
(0 0 274.135)
(0 0 274.163)
(0 0 274.138)
(0 0 274.144)
(0 0 274.136)
(0 0 274.147)
(0 0 274.116)
(0 0 274.147)
(0 0 274.149)
(0 0 274.168)
(0 0 274.147)
(0 0 274.232)
(0 0 274.103)
(0 0 274.168)
(0 0 274.149)
(0 0 274.149)
(0 0 274.152)
(0 0 274.161)
(0 0 274.178)
(0 0 274.152)
(0 0 274.236)
(0 0 274.105)
(0 0 274.17)
(0 0 274.15)
(0 0 274.151)
(0 0 274.18)
(0 0 274.125)
(0 0 274.225)
(0 0 274.127)
(0 0 274.161)
(0 0 274.149)
(0 0 274.141)
(0 0 274.135)
(0 0 274.13)
(0 0 274.123)
(0 0 274.091)
(0 0 274.089)
(0 0 273.966)
(0 0 273.895)
(0 0 273.747)
(0 0 273.536)
(0 0 273.229)
(0 0 272.772)
(0 0 272.079)
(0 0 271.038)
(0 0 269.629)
(0 0 267.765)
(0 0 265.388)
(0 0 262.445)
(0 0 259.049)
(0 0 255.475)
(0 0 254.045)
(0 0 259.987)
(0 0 313.381)
(0 0 297.196)
(0 0 62.7833)
(0 0 72.2769)
(0 0 112.408)
(0 0 153.498)
(0 0 179.456)
(0 0 207.254)
(0 0 234.355)
(0 0 257.874)
(0 0 278.483)
(0 0 296.913)
(0 0 313.78)
(0 0 328.98)
(0 0 342.333)
(0 0 353.853)
(0 0 363.591)
(0 0 371.627)
(0 0 378.303)
(0 0 383.828)
(0 0 388.353)
(0 0 391.965)
(0 0 394.851)
(0 0 397.307)
(0 0 399.315)
(0 0 400.859)
(0 0 402.032)
(0 0 402.956)
(0 0 403.711)
(0 0 404.225)
(0 0 404.716)
(0 0 405.04)
(0 0 405.313)
(0 0 405.458)
(0 0 405.6)
(0 0 405.676)
(0 0 405.79)
(0 0 405.831)
(0 0 405.87)
(0 0 405.902)
(0 0 405.927)
(0 0 405.948)
(0 0 405.946)
(0 0 405.959)
(0 0 405.967)
(0 0 405.96)
(0 0 405.956)
(0 0 405.944)
(0 0 405.979)
(0 0 405.967)
(0 0 405.965)
(0 0 405.958)
(0 0 405.966)
(0 0 405.958)
(0 0 405.969)
(0 0 405.969)
(0 0 405.978)
(0 0 405.951)
(0 0 405.959)
(0 0 405.936)
(0 0 405.98)
(0 0 405.967)
(0 0 405.964)
(0 0 405.969)
(0 0 405.976)
(0 0 405.985)
(0 0 405.956)
(0 0 405.962)
(0 0 405.938)
(0 0 405.981)
(0 0 405.969)
(0 0 405.969)
(0 0 405.986)
(0 0 405.947)
(0 0 405.953)
(0 0 405.933)
(0 0 405.964)
(0 0 405.956)
(0 0 405.946)
(0 0 405.935)
(0 0 405.92)
(0 0 405.895)
(0 0 405.832)
(0 0 405.763)
(0 0 405.657)
(0 0 405.529)
(0 0 405.299)
(0 0 404.961)
(0 0 404.461)
(0 0 403.713)
(0 0 402.592)
(0 0 400.946)
(0 0 398.649)
(0 0 395.513)
(0 0 391.276)
(0 0 385.663)
(0 0 378.426)
(0 0 369.186)
(0 0 359.127)
(0 0 351.43)
(0 0 389.431)
(0 0 306.272)
(0 0 66.2943)
(0 0 82.5467)
(0 0 129.488)
(0 0 177.387)
(0 0 210.988)
(0 0 246.768)
(0 0 281.85)
(0 0 313.279)
(0 0 341.692)
(0 0 367.517)
(0 0 391.025)
(0 0 412.08)
(0 0 430.556)
(0 0 446.554)
(0 0 460.116)
(0 0 471.406)
(0 0 480.786)
(0 0 488.539)
(0 0 494.871)
(0 0 499.949)
(0 0 504.012)
(0 0 507.359)
(0 0 510.058)
(0 0 512.156)
(0 0 513.765)
(0 0 515.011)
(0 0 515.995)
(0 0 516.76)
(0 0 517.372)
(0 0 517.798)
(0 0 518.124)
(0 0 518.326)
(0 0 518.488)
(0 0 518.633)
(0 0 518.762)
(0 0 518.823)
(0 0 518.871)
(0 0 518.91)
(0 0 518.939)
(0 0 518.961)
(0 0 518.961)
(0 0 518.964)
(0 0 518.981)
(0 0 518.972)
(0 0 518.953)
(0 0 518.97)
(0 0 519.006)
(0 0 519.002)
(0 0 518.998)
(0 0 518.993)
(0 0 518.997)
(0 0 518.999)
(0 0 519.002)
(0 0 519)
(0 0 519.001)
(0 0 518.973)
(0 0 518.958)
(0 0 518.973)
(0 0 519.007)
(0 0 518.998)
(0 0 518.994)
(0 0 518.998)
(0 0 519.003)
(0 0 519.006)
(0 0 518.976)
(0 0 518.961)
(0 0 518.975)
(0 0 519.008)
(0 0 519)
(0 0 518.999)
(0 0 519.006)
(0 0 518.975)
(0 0 518.954)
(0 0 518.958)
(0 0 518.983)
(0 0 518.976)
(0 0 518.964)
(0 0 518.948)
(0 0 518.924)
(0 0 518.883)
(0 0 518.801)
(0 0 518.697)
(0 0 518.574)
(0 0 518.39)
(0 0 518.082)
(0 0 517.625)
(0 0 516.945)
(0 0 515.929)
(0 0 514.418)
(0 0 512.209)
(0 0 509.083)
(0 0 504.726)
(0 0 498.689)
(0 0 490.443)
(0 0 479.308)
(0 0 464.034)
(0 0 444.333)
(0 0 421.307)
(0 0 440.379)
(0 0 299.077)
(0 0 68.7706)
(0 0 89.918)
(0 0 141.917)
(0 0 194.997)
(0 0 234.647)
(0 0 276.872)
(0 0 318.556)
(0 0 356.666)
(0 0 391.748)
(0 0 423.936)
(0 0 453.186)
(0 0 479.32)
(0 0 502.257)
(0 0 522.121)
(0 0 538.994)
(0 0 553.1)
(0 0 564.824)
(0 0 574.498)
(0 0 582.389)
(0 0 588.731)
(0 0 593.81)
(0 0 597.927)
(0 0 601.22)
(0 0 603.79)
(0 0 605.77)
(0 0 607.296)
(0 0 608.488)
(0 0 609.43)
(0 0 610.151)
(0 0 610.665)
(0 0 611.046)
(0 0 611.301)
(0 0 611.495)
(0 0 611.677)
(0 0 611.82)
(0 0 611.897)
(0 0 611.954)
(0 0 611.999)
(0 0 612.032)
(0 0 612.055)
(0 0 612.058)
(0 0 612.06)
(0 0 612.077)
(0 0 612.07)
(0 0 612.053)
(0 0 612.077)
(0 0 612.109)
(0 0 612.111)
(0 0 612.108)
(0 0 612.103)
(0 0 612.105)
(0 0 612.11)
(0 0 612.112)
(0 0 612.108)
(0 0 612.103)
(0 0 612.077)
(0 0 612.06)
(0 0 612.085)
(0 0 612.112)
(0 0 612.106)
(0 0 612.102)
(0 0 612.105)
(0 0 612.108)
(0 0 612.107)
(0 0 612.08)
(0 0 612.062)
(0 0 612.086)
(0 0 612.113)
(0 0 612.108)
(0 0 612.105)
(0 0 612.106)
(0 0 612.08)
(0 0 612.055)
(0 0 612.065)
(0 0 612.083)
(0 0 612.076)
(0 0 612.062)
(0 0 612.041)
(0 0 612.009)
(0 0 611.956)
(0 0 611.86)
(0 0 611.735)
(0 0 611.583)
(0 0 611.348)
(0 0 610.971)
(0 0 610.407)
(0 0 609.566)
(0 0 608.313)
(0 0 606.455)
(0 0 603.741)
(0 0 599.863)
(0 0 594.381)
(0 0 586.664)
(0 0 575.91)
(0 0 560.955)
(0 0 539.578)
(0 0 510.006)
(0 0 471.782)
(0 0 472.705)
(0 0 286.916)
(0 0 70.3626)
(0 0 94.8207)
(0 0 150.401)
(0 0 207.206)
(0 0 251.405)
(0 0 298.589)
(0 0 345.483)
(0 0 388.978)
(0 0 429.514)
(0 0 466.937)
(0 0 500.922)
(0 0 531.249)
(0 0 557.867)
(0 0 580.91)
(0 0 600.506)
(0 0 616.927)
(0 0 630.575)
(0 0 641.824)
(0 0 650.992)
(0 0 658.369)
(0 0 664.277)
(0 0 669.026)
(0 0 672.805)
(0 0 675.758)
(0 0 678.038)
(0 0 679.793)
(0 0 681.157)
(0 0 682.229)
(0 0 683.04)
(0 0 683.627)
(0 0 684.057)
(0 0 684.356)
(0 0 684.582)
(0 0 684.784)
(0 0 684.939)
(0 0 685.03)
(0 0 685.095)
(0 0 685.144)
(0 0 685.18)
(0 0 685.204)
(0 0 685.211)
(0 0 685.215)
(0 0 685.23)
(0 0 685.225)
(0 0 685.214)
(0 0 685.238)
(0 0 685.265)
(0 0 685.271)
(0 0 685.27)
(0 0 685.266)
(0 0 685.266)
(0 0 685.271)
(0 0 685.273)
(0 0 685.268)
(0 0 685.26)
(0 0 685.237)
(0 0 685.223)
(0 0 685.247)
(0 0 685.271)
(0 0 685.266)
(0 0 685.263)
(0 0 685.264)
(0 0 685.266)
(0 0 685.262)
(0 0 685.239)
(0 0 685.224)
(0 0 685.248)
(0 0 685.272)
(0 0 685.268)
(0 0 685.264)
(0 0 685.26)
(0 0 685.238)
(0 0 685.218)
(0 0 685.226)
(0 0 685.238)
(0 0 685.23)
(0 0 685.214)
(0 0 685.189)
(0 0 685.15)
(0 0 685.087)
(0 0 684.982)
(0 0 684.842)
(0 0 684.662)
(0 0 684.384)
(0 0 683.947)
(0 0 683.292)
(0 0 682.316)
(0 0 680.862)
(0 0 678.711)
(0 0 675.566)
(0 0 671.04)
(0 0 664.574)
(0 0 655.368)
(0 0 642.352)
(0 0 623.876)
(0 0 596.787)
(0 0 558.065)
(0 0 506.332)
(0 0 492.647)
(0 0 275.287)
(0 0 71.2413)
(0 0 97.7657)
(0 0 155.754)
(0 0 215.02)
(0 0 262.406)
(0 0 313.159)
(0 0 363.891)
(0 0 411.452)
(0 0 456.184)
(0 0 497.657)
(0 0 535.3)
(0 0 568.856)
(0 0 598.3)
(0 0 623.776)
(0 0 645.454)
(0 0 663.642)
(0 0 678.758)
(0 0 691.208)
(0 0 701.349)
(0 0 709.513)
(0 0 716.049)
(0 0 721.279)
(0 0 725.427)
(0 0 728.668)
(0 0 731.174)
(0 0 733.104)
(0 0 734.598)
(0 0 735.763)
(0 0 736.642)
(0 0 737.284)
(0 0 737.754)
(0 0 738.087)
(0 0 738.338)
(0 0 738.553)
(0 0 738.716)
(0 0 738.817)
(0 0 738.888)
(0 0 738.942)
(0 0 738.98)
(0 0 739.005)
(0 0 739.015)
(0 0 739.021)
(0 0 739.035)
(0 0 739.032)
(0 0 739.026)
(0 0 739.047)
(0 0 739.07)
(0 0 739.078)
(0 0 739.079)
(0 0 739.075)
(0 0 739.075)
(0 0 739.08)
(0 0 739.082)
(0 0 739.077)
(0 0 739.068)
(0 0 739.048)
(0 0 739.036)
(0 0 739.057)
(0 0 739.077)
(0 0 739.075)
(0 0 739.072)
(0 0 739.073)
(0 0 739.073)
(0 0 739.068)
(0 0 739.049)
(0 0 739.037)
(0 0 739.058)
(0 0 739.078)
(0 0 739.076)
(0 0 739.071)
(0 0 739.065)
(0 0 739.046)
(0 0 739.031)
(0 0 739.036)
(0 0 739.043)
(0 0 739.034)
(0 0 739.016)
(0 0 738.988)
(0 0 738.944)
(0 0 738.875)
(0 0 738.763)
(0 0 738.612)
(0 0 738.408)
(0 0 738.095)
(0 0 737.612)
(0 0 736.886)
(0 0 735.803)
(0 0 734.193)
(0 0 731.812)
(0 0 728.328)
(0 0 723.285)
(0 0 716.027)
(0 0 705.606)
(0 0 690.715)
(0 0 669.28)
(0 0 637.374)
(0 0 591.071)
(0 0 528.625)
(0 0 504.752)
(0 0 266.266)
(0 0 71.5686)
(0 0 99.2471)
(0 0 158.746)
(0 0 219.397)
(0 0 268.747)
(0 0 321.779)
(0 0 375.006)
(0 0 425.305)
(0 0 472.951)
(0 0 517.253)
(0 0 557.427)
(0 0 593.194)
(0 0 624.56)
(0 0 651.681)
(0 0 674.765)
(0 0 694.145)
(0 0 710.252)
(0 0 723.509)
(0 0 734.303)
(0 0 742.998)
(0 0 749.956)
(0 0 755.508)
(0 0 759.902)
(0 0 763.335)
(0 0 765.992)
(0 0 768.038)
(0 0 769.618)
(0 0 770.843)
(0 0 771.767)
(0 0 772.446)
(0 0 772.943)
(0 0 773.301)
(0 0 773.569)
(0 0 773.79)
(0 0 773.958)
(0 0 774.067)
(0 0 774.143)
(0 0 774.199)
(0 0 774.238)
(0 0 774.264)
(0 0 774.277)
(0 0 774.285)
(0 0 774.297)
(0 0 774.296)
(0 0 774.294)
(0 0 774.312)
(0 0 774.332)
(0 0 774.341)
(0 0 774.343)
(0 0 774.34)
(0 0 774.34)
(0 0 774.343)
(0 0 774.346)
(0 0 774.341)
(0 0 774.332)
(0 0 774.315)
(0 0 774.306)
(0 0 774.323)
(0 0 774.34)
(0 0 774.34)
(0 0 774.337)
(0 0 774.337)
(0 0 774.336)
(0 0 774.331)
(0 0 774.315)
(0 0 774.306)
(0 0 774.323)
(0 0 774.34)
(0 0 774.34)
(0 0 774.334)
(0 0 774.327)
(0 0 774.311)
(0 0 774.299)
(0 0 774.303)
(0 0 774.305)
(0 0 774.296)
(0 0 774.276)
(0 0 774.246)
(0 0 774.199)
(0 0 774.125)
(0 0 774.01)
(0 0 773.851)
(0 0 773.629)
(0 0 773.293)
(0 0 772.777)
(0 0 772.002)
(0 0 770.847)
(0 0 769.13)
(0 0 766.592)
(0 0 762.874)
(0 0 757.472)
(0 0 749.658)
(0 0 738.374)
(0 0 722.136)
(0 0 698.557)
(0 0 663.163)
(0 0 611.472)
(0 0 541.75)
(0 0 511.813)
(0 0 260.398)
(0 0 71.612)
(0 0 99.8289)
(0 0 160.081)
(0 0 221.32)
(0 0 271.597)
(0 0 325.701)
(0 0 380.11)
(0 0 431.806)
(0 0 481.042)
(0 0 526.89)
(0 0 568.389)
(0 0 605.272)
(0 0 637.587)
(0 0 665.51)
(0 0 689.278)
(0 0 709.242)
(0 0 725.833)
(0 0 739.486)
(0 0 750.601)
(0 0 759.557)
(0 0 766.725)
(0 0 772.434)
(0 0 776.947)
(0 0 780.473)
(0 0 783.204)
(0 0 785.308)
(0 0 786.93)
(0 0 788.181)
(0 0 789.126)
(0 0 789.823)
(0 0 790.335)
(0 0 790.706)
(0 0 790.983)
(0 0 791.206)
(0 0 791.375)
(0 0 791.488)
(0 0 791.567)
(0 0 791.624)
(0 0 791.664)
(0 0 791.691)
(0 0 791.705)
(0 0 791.715)
(0 0 791.725)
(0 0 791.727)
(0 0 791.727)
(0 0 791.743)
(0 0 791.76)
(0 0 791.769)
(0 0 791.771)
(0 0 791.77)
(0 0 791.769)
(0 0 791.772)
(0 0 791.774)
(0 0 791.77)
(0 0 791.761)
(0 0 791.747)
(0 0 791.74)
(0 0 791.754)
(0 0 791.768)
(0 0 791.769)
(0 0 791.767)
(0 0 791.766)
(0 0 791.765)
(0 0 791.759)
(0 0 791.747)
(0 0 791.74)
(0 0 791.753)
(0 0 791.768)
(0 0 791.768)
(0 0 791.763)
(0 0 791.755)
(0 0 791.742)
(0 0 791.733)
(0 0 791.734)
(0 0 791.734)
(0 0 791.723)
(0 0 791.703)
(0 0 791.671)
(0 0 791.623)
(0 0 791.547)
(0 0 791.431)
(0 0 791.268)
(0 0 791.037)
(0 0 790.687)
(0 0 790.154)
(0 0 789.355)
(0 0 788.163)
(0 0 786.393)
(0 0 783.778)
(0 0 779.945)
(0 0 774.364)
(0 0 766.266)
(0 0 754.538)
(0 0 737.601)
(0 0 712.902)
(0 0 675.689)
(0 0 621.217)
(0 0 547.873)
(0 0 515.119)
(0 0 257.465)
(0 0 71.6154)
(0 0 99.8232)
(0 0 160.052)
(0 0 221.271)
(0 0 271.488)
(0 0 325.448)
(0 0 379.713)
(0 0 431.44)
(0 0 480.909)
(0 0 526.983)
(0 0 568.569)
(0 0 605.448)
(0 0 637.722)
(0 0 665.595)
(0 0 689.325)
(0 0 709.267)
(0 0 725.845)
(0 0 739.49)