/*--------------------------------*- C++ -*----------------------------------*\
| =========                 |                                                 |
| \\      /  F ield         | foam-extend: Open Source CFD                    |
|  \\    /   O peration     | Version:     5.0                                |
|   \\  /    A nd           | Web:         http://www.foam-extend.org         |
|    \\/     M anipulation  |                                                 |
\*---------------------------------------------------------------------------*/
FoamFile
{
    version     2.0;
    format      ascii;
    class       volScalarField;
    location    "0.04";
    object      p;
}
// * * * * * * * * * * * * * * * * * * * * * * * * * * * * * * * * * * * * * //

dimensions      [1 -1 -2 0 0 0 0];

internalField   nonuniform List<scalar> 
4000
(
21583.2
21470.4
21529.7
21532.3
21513.6
21515.1
21529.3
21538.8
21535.4
21509.6
21467.3
21424.6
21381.1
21322.9
21239.7
21136.6
21017.4
20882
20728.8
20561.6
20383
20194.9
20000.3
19797.1
19586.9
19372.9
19155.6
18934.7
18711.3
18486
18259
18030.6
17801.1
17571.1
17340.6
17109.8
16878.7
16647.3
16415.7
16184
15952.1
15720
15487.9
15255.9
15023.7
14791.4
14559.3
14327.3
14095.3
13863.2
13631.1
13399
13167
12935
12702.9
12470.7
12238.4
12006.1
11774
11542
11309.9
11077.8
10845.8
10613.7
10381.6
10149.3
9916.97
9684.92
9452.89
9220.82
8988.75
8756.69
8524.43
8292.03
8059.85
7827.84
7595.82
7363.81
7131.84
6899.89
6667.78
6435.44
6203.16
5971.03
5738.89
5506.29
5272.9
5039.18
4804.47
4566.5
4326
4081.41
3830.47
3572.45
3310.52
3044.01
2788.53
2629.97
2678.63
1394.84
21561.8
21450.1
21514.7
21516.9
21498.1
21501
21516.3
21526.5
21524.3
21499.9
21458.4
21416.7
21373.9
21316.4
21233.8
21131.4
21012.9
20878.2
20725.5
20558.9
20380.7
20193
19998.9
19795.9
19585.9
19372.2
19155
18934.2
18710.9
18485.8
18258.8
18030.4
17801
17571
17340.6
17109.7
16878.6
16647.3
16415.7
16184
15952.1
15720
15487.9
15255.9
15023.7
14791.4
14559.3
14327.3
14095.3
13863.2
13631.1
13399
13167
12935
12702.9
12470.7
12238.4
12006.1
11774
11542
11309.9
11077.8
10845.8
10613.7
10381.6
10149.3
9916.96
9684.93
9452.9
9220.82
8988.75
8756.7
8524.44
8292.03
8059.86
7827.85
7595.84
7363.83
7131.86
6899.93
6667.85
6435.53
6203.28
5971.22
5739.15
5506.65
5273.38
5039.88
4805.48
4567.86
4327.87
4084.11
3834.17
3577.09
3316.14
3049.78
2788.79
2617.88
2692.81
1421.53
21552.6
21434.7
21507.7
21509
21488.6
21492.3
21508.5
21519.5
21519.1
21494.9
21452.6
21411.3
21369.5
21312.8
21230.7
21129.1
21011
20876.7
20724.2
20557.7
20379.8
20192.1
19998.4
19795.6
19585.6
19371.9
19154.8
18934
18710.8
18485.7
18258.7
18030.4
17800.9
17570.9
17340.6
17109.7
16878.6
16647.3
16415.7
16184
15952.1
15720
15487.9
15255.9
15023.7
14791.4
14559.3
14327.3
14095.3
13863.2
13631.1
13399
13167
12934.9
12702.9
12470.8
12238.4
12006.1
11774
11542
11309.9
11077.8
10845.8
10613.7
10381.6
10149.3
9916.95
9684.94
9452.9
9220.82
8988.74
8756.71
8524.45
8292.02
8059.86
7827.86
7595.85
7363.84
7131.88
6899.97
6667.91
6435.59
6203.37
5971.34
5739.34
5506.94
5273.71
5040.32
4806.22
4568.83
4329.28
4086.11
3836.65
3579.93
3319.52
3052.7
2785.02
2603.73
2723.07
1468.1
21565.2
21433.8
21515.8
21515.2
21491.3
21495
21511.3
21522.7
21523.6
21497.9
21452.8
21412
21371.1
21314.4
21232.6
21131.1
21012.7
20878.5
20725.5
20558.9
20380.8
20192.9
19999.2
19796.3
19586
19372.2
19155.2
18934.2
18711
18485.9
18258.9
18030.5
17801
17571
17340.6
17109.7
16878.6
16647.3
16415.7
16184
15952.2
15720
15487.8
15255.9
15023.7
14791.3
14559.3
14327.3
14095.3
13863.2
13631.1
13399
13167
12934.9
12702.9
12470.8
12238.4
12006
11774
11542
11309.9
11077.8
10845.8
10613.7
10381.7
10149.2
9916.92
9684.94
9452.9
9220.81
8988.74
8756.75
8524.47
8291.99
8059.85
7827.87
7595.86
7363.84
7131.88
6899.99
6667.95
6435.62
6203.4
5971.37
5739.42
5507.1
5273.83
5040.37
4806.44
4569.2
4330
4086.99
3836.48
3580.07
3320.24
3051.47
2775.53
2579.4
2725.75
1494.18
21604.8
21452.9
21543.3
21539.3
21510
21512.4
21527.9
21538.6
21539.4
21508.3
21460.6
21423.1
21381.6
21323.1
21240.6
21138.3
21018.8
20883.4
20730.1
20563.4
20384
20195.3
20001.5
19798.2
19587.3
19373.3
19156.1
18934.9
18711.5
18486.3
18259.3
18030.8
17801.1
17571.1
17340.7
17109.8
16878.7
16647.3
16415.7
16184
15952.2
15720
15487.8
15256
15023.7
14791.3
14559.3
14327.3
14095.3
13863.2
13631.1
13399
13167
12934.9
12702.9
12470.8
12238.4
12006
11774.1
11542
11309.9
11077.8
10845.8
10613.7
10381.7
10149.2
9916.88
9684.94
9452.89
9220.8
8988.73
8756.8
8524.5
8291.95
8059.83
7827.86
7595.85
7363.83
7131.86
6899.99
6667.96
6435.61
6203.38
5971.3
5739.27
5506.97
5273.78
5040.13
4806.05
4568.64
4329.56
4086.25
3833.99
3577.03
3316.91
3045.18
2759.58
2539.63
2671.25
1469.47
21671.9
21494.2
21591.3
21582.5
21545.9
21545.9
21559.5
21568
21565.3
21527.6
21479.1
21444.7
21401.1
21339.3
21254.9
21150.8
21029.5
20892.1
20737.9
20570.7
20389.5
20199.3
20005.2
19801.2
19589.5
19375.1
19157.7
18936
18712.4
18487
18259.8
18031.3
17801.4
17571.2
17340.9
17110
16878.8
16647.4
16415.8
16184
15952.3
15720
15487.8
15256.1
15023.7
14791.2
14559.3
14327.3
14095.3
13863.2
13631.1
13399
13167.1
12934.9
12702.9
12470.9
12238.4
12005.9
11774.1
11542
11309.9
11077.8
10845.8
10613.7
10381.8
10149.2
9916.81
9684.94
9452.89
9220.8
8988.71
8756.87
8524.55
8291.88
8059.79
7827.86
7595.85
7363.8
7131.83
6899.98
6667.94
6435.49
6203.22
5971.15
5739
5506.47
5273.38
5039.62
4805.12
4566.98
4326.72
4082.48
3829.67
3571.59
3309.16
3033.48
2737.39
2483.66
2546.84
1380.62
21764.1
21556.6
21658.6
21643.8
21598.5
21595.1
21605.6
21610.2
21600.9
21557.6
21509.2
21475.9
21428.6
21362.6
21275.3
21168.6
21044.5
20904.6
20748.7
20580.4
20397
20205
20010.3
19805
19592.6
19378
19159.9
18937.5
18713.6
18488
18260.6
18031.9
17801.9
17571.5
17341.2
17110.1
16878.9
16647.5
16415.9
16184.1
15952.4
15720.1
15487.7
15256.2
15023.7
14791.2
14559.3
14327.3
14095.3
13863.2
13631.1
13399.1
13167.1
12934.9
12702.9
12471
12238.4
12005.8
11774.1
11542
11309.9
11077.8
10845.8
10613.7
10381.9
10149.2
9916.72
9684.94
9452.89
9220.79
8988.69
8756.96
8524.6
8291.78
8059.73
7827.84
7595.83
7363.77
7131.78
6899.94
6667.9
6435.28
6202.91
5970.88
5738.57
5505.64
5272.33
5038.59
4803.7
4564.15
4321.98
4076.3
3822.56
3562.47
3296.26
3015.68
2709.04
2414.01
2357.38
1233.52
21875.5
21636.7
21741.7
21720.4
21665.3
21657.6
21664.1
21660.7
21644
21600.2
21551.8
21515.4
21463.1
21391.9
21301
21190.7
21063.2
20920.2
20762
20591.6
20406.2
20212.4
20016.3
19809.6
19596.5
19381.5
19162.5
18939.3
18715
18489
18261.4
18032.7
17802.4
17571.8
17341.4
17110.4
16879.1
16647.6
16415.9
16184.2
15952.6
15720.1
15487.7
15256.3
15023.7
14791
14559.2
14327.3
14095.3
13863.2
13631
13399.1
13167.1
12934.9
12702.9
12471.1
12238.3
12005.7
11774.1
11542
11309.9
11077.8
10845.8
10613.7
10382
10149.2
9916.6
9684.95
9452.88
9220.78
8988.67
8757.08
8524.66
8291.65
8059.67
7827.81
7595.79
7363.73
7131.71
6899.89
6667.82
6434.99
6202.45
5970.35
5737.81
5504.59
5270.89
5036.67
4800.93
4560.13
4315.81
4067.9
3812.23
3548.85
3277.49
2991.05
2674.48
2335.37
2121.92
1048.54
21999.8
21729.8
21835.1
21807.1
21742.2
21729.7
21731.4
21719.4
21695.1
21651
21602
21560.8
21502.5
21425.8
21330.5
21216.2
21084.8
20938.1
20777.1
20603.8
20416.5
20221.4
20023
19814.9
19601
19385.4
19165.3
18941.3
18716.6
18490.3
18262.4
18033.7
17803
17572.1
17341.8
17110.6
16879.3
16647.8
16416
16184.3
15952.8
15720.2
15487.6
15256.4
15023.7
14790.9
14559.2
14327.3
14095.3
13863.2
13631
13399.1
13167.1
12934.9
12702.9
12471.3
12238.3
12005.6
11774.1
11542
11309.9
11077.8
10845.8
10613.7
10382.1
10149.2
9916.45
9684.96
9452.88
9220.79
8988.66
8757.22
8524.71
8291.49
8059.59
7827.77
7595.75
7363.67
7131.63
6899.81
6667.7
6434.59
6201.86
5969.66
5736.81
5503.22
5268.98
5033.91
4796.75
4554.51
4308.09
4057.35
3798.5
3530.42
3252.5
2959.14
2633.81
2253.91
1871.41
855.761
22130.3
21830.8
21934.4
21899.9
21825.4
21807.5
21802.5
21783.3
21752.5
21706
21655.1
21608.2
21543.9
21461.5
21361.6
21242.9
21107.3
20956.9
20792.8
20616.4
20427.2
20230.7
20030
19820.4
19605.7
19389.3
19168.1
18943.3
18718.4
18491.6
18263.4
18034.6
17803.6
17572.4
17342.1
17110.9
16879.5
16647.9
16416.1
16184.3
15953
15720.2
15487.5
15256.6
15023.7
14790.8
14559.2
14327.3
14095.4
13863.2
13631
13399.1
13167.2
12934.9
12702.9
12471.4
12238.3
12005.4
11774.1
11542
11309.9
11077.8
10845.8
10613.8
10382.3
10149.1
9916.27
9684.97
9452.88
9220.79
8988.66
8757.38
8524.76
8291.29
8059.49
7827.73
7595.69
7363.59
7131.52
6899.71
6667.55
6434.09
6201.15
5968.83
5735.61
5501.53
5266.6
5030.37
4791.65
4547.74
4298.82
4044.77
3781.75
3507.8
3222.14
2921.03
2588.61
2175.42
1634.88
678.057
22261.4
21935
22034.9
21994.5
21911.6
21887.8
21876.1
21850.2
21813.5
21763.6
21709.7
21656.8
21586.4
21498.4
21393.5
21270.3
21130.2
20976
20808.8
20629.4
20438.1
20239.9
20037
19826
19610.3
19393.1
19170.9
18945.3
18720.1
18493
18264.4
18035.5
17804.2
17572.7
17342.4
17111.1
16879.7
16648
16416.2
16184.4
15953.1
15720.2
15487.4
15256.7
15023.7
14790.6
14559.3
14327.3
14095.4
13863.2
13631
13399.1
13167.2
12935
12702.9
12471.5
12238.2
12005.3
11774.1
11542
11309.9
11077.8
10845.8
10613.8
10382.4
10149.1
9916.14
9684.99
9452.88
9220.8
8988.66
8757.48
8524.77
8291.14
8059.41
7827.69
7595.63
7363.5
7131.38
6899.57
6667.3
6433.53
6200.37
5967.85
5734.2
5499.52
5263.7
5026.16
4785.66
4539.72
4287.96
4029.93
3761.73
3480.69
3185.89
2875.6
2536.31
2096.59
1415.54
515.046
22388.2
22038.4
22132.9
22087.4
21997.6
21967.9
21949.6
21917.4
21875
21821.6
21764
21704.7
21628.6
21535.1
21425
21297.1
21152.8
20994.9
20824.5
20642
20448.7
20248.7
20043.8
19831.4
19614.8
19396.6
19173.5
18947.4
18721.7
18494.3
18265.4
18036.1
17804.7
17573.2
17342.8
17111.4
16879.9
16648.2
16416.3
16184.5
15953.1
15720.2
15487.5
15256.6
15023.7
14790.8
14559.3
14327.4
14095.4
13863.2
13631
13399.1
13167.2
12935
12702.9
12471.4
12238.2
12005.4
11774.1
11542
11309.9
11077.8
10845.8
10613.8
10382.2
10149.1
9916.25
9685
9452.89
9220.8
8988.67
8757.34
8524.65
8291.22
8059.45
7827.66
7595.56
7363.39
7131.22
6899.25
6666.83
6433.05
6199.7
5966.76
5732.61
5497.25
5260.43
5021.45
4779
4530.71
4275.74
4013.18
3738.95
3449.69
3144.39
2823.31
2476.21
2012.46
1198.36
353.522
22506.8
22137.4
22225.7
22176.5
22081.3
22045.8
22021.3
21983
21935.3
21878.3
21816.6
21751
21669.2
21570.4
21455.2
21322.7
21174.4
21012.8
20839.2
20654
20458.7
20256.9
20050.1
19836.4
19618.8
19399.7
19176
18949.4
18723.2
18495.6
18266.3
18036.6
17805.3
17573.7
17343.1
17111.6
16880
16648.3
16416.4
16184.5
15952.9
15720.3
15487.7
15256.5
15023.7
14790.9
14559.3
14327.4
14095.4
13863.2
13631
13399.1
13167.2
12934.9
12702.9
12471.2
12238.2
12005.5
11774.2
11542
11309.9
11077.8
10845.8
10613.7
10382.1
10149.1
9916.4
9685.01
9452.9
9220.79
8988.66
8757.15
8524.53
8291.35
8059.5
7827.61
7595.48
7363.26
7131.03
6898.9
6666.31
6432.55
6199
5965.6
5730.92
5494.83
5256.95
5016.46
4771.96
4521.13
4262.71
3995.23
3714.21
3415.87
3099
2765.61
2408.87
1919.37
977.843
191.385
22614
22228.7
22310.3
22258.3
22159.5
22118.9
22088.8
22045.5
21993.3
21933.1
21867.3
21795.5
21708.2
21604.2
21483.9
21347
21194.9
21029.8
20853.1
20665.3
20468.1
20264.5
20056
19841
19622.7
19402.6
19178.2
18951.3
18724.6
18496.6
18267
18037.1
17805.7
17574.2
17343.3
17111.8
16880.2
16648.4
16416.5
16184.6
15952.9
15720.3
15487.8
15256.4
15023.7
14791.1
14559.4
14327.4
14095.4
13863.3
13631.1
13399.1
13167.1
12934.9
12702.9
12471.1
12238.2
12005.7
11774.2
11542.1
11309.9
11077.8
10845.8
10613.7
10381.9
10149.1
9916.54
9685
9452.91
9220.78
8988.66
8756.98
8524.43
8291.46
8059.52
7827.56
7595.39
7363.13
7130.83
6898.54
6665.78
6432.02
6198.27
5964.39
5729.16
5492.32
5253.37
5011.32
4764.84
4511.4
4249.12
3976.23
3688.03
3380.09
3050.65
2703.43
2334.95
1818.45
762.113
35.8609
22707.7
22309.9
22384.8
22330.7
22229.4
22184.3
22149.2
22101.4
22045.5
21982.4
21912.9
21835.7
21743.3
21634.5
21509.8
21368.9
21213.2
21045
20865.4
20675.3
20476.4
20271.3
20061.1
19845
19626.1
19405.2
19180.1
18953
18725.8
18497.4
18267.6
18037.4
17806.2
17574.6
17343.5
17112
16880.3
16648.5
16416.5
16184.6
15952.8
15720.3
15487.9
15256.3
15023.7
14791.2
14559.4
14327.5
14095.4
13863.3
13631.1
13399.1
13167.1
12934.9
12702.9
12470.9
12238.2
12005.8
11774.1
11542.1
11309.9
11077.8
10845.7
10613.7
10381.8
10149.1
9916.66
9684.99
9452.9
9220.77
8988.64
8756.83
8524.36
8291.56
8059.53
7827.51
7595.31
7363
7130.64
6898.21
6665.3
6431.52
6197.56
5963.23
5727.49
5489.93
5249.95
5006.43
4757.87
4501.73
4235.76
3957.58
3662.25
3344.67
3002.47
2640.97
2260
1716.67
562.63
-106.306
22786.5
22379.5
22448
22392.2
22289.4
22240.3
22200.8
22149.1
22090.4
22024.9
21952.3
21870.4
21773.5
21660.6
21531.9
21387.5
21228.9
21057.9
20875.9
20683.9
20483.4
20276.9
20065.5
19848.6
19628.9
19407.2
19181.7
18954.4
18726.8
18498.1
18268.1
18037.8
17806.5
17574.9
17343.7
17112.1
16880.4
16648.5
16416.6
16184.6
15952.7
15720.3
15488
15256.2
15023.8
14791.3
14559.5
14327.5
14095.4
13863.3
13631.1
13399.1
13167.1
12934.9
12702.8
12470.8
12238.3
12005.9
11774.1
11542.1
11309.9
11077.8
10845.7
10613.7
10381.7
10149.1
9916.76
9684.98
9452.89
9220.75
8988.63
8756.72
8524.3
8291.63
8059.53
7827.46
7595.22
7362.88
7130.45
6897.91
6664.88
6431.04
6196.89
5962.17
5725.96
5487.74
5246.81
5001.94
4751.45
4492.8
4223.42
3940.34
3638.31
3311.58
2957.21
2581.93
2188.71
1620.04
388.973
-229.415
22849.8
22436.4
22499.2
22442.1
22338.3
22285.8
22242.3
22187.4
22126.6
22059.6
21984.4
21898.7
21798.2
21681.8
21549.9
21402.7
21241.5
21068.3
20884.4
20690.7
20489.1
20281.5
20069
19851.6
19631.2
19408.7
19183
18955.6
18727.6
18498.6
18268.5
18038
17806.7
17575.2
17343.9
17112.2
16880.4
16648.6
16416.6
16184.6
15952.7
15720.3
15488
15256.1
15023.8
14791.4
14559.5
14327.5
14095.4
13863.3
13631.1
13399.1
13167
12934.9
12702.8
12470.8
12238.3
12006
11774.1
11542.1
11309.9
11077.8
10845.7
10613.6
10381.6
10149.1
9916.84
9684.97
9452.88
9220.74
8988.61
8756.63
8524.25
8291.69
8059.53
7827.41
7595.15
7362.77
7130.28
6897.64
6664.5
6430.63
6196.3
5961.24
5724.62
5485.83
5244.07
4998.03
4745.91
4485.1
4212.74
3925.39
3617.48
3282.64
2917.44
2529.87
2125.68
1535.06
247.465
-329.644
22897.4
22480
22538
22479.8
22375.3
22320
22273.1
22215.4
22153.3
22085.5
22008.7
21920.1
21816.8
21697.8
21563.4
21414
21251
21076.1
20890.7
20695.9
20493.4
20285
20071.7
19853.8
19632.9
19409.9
19184
18956.4
18728.2
18499
18268.9
18038.2
17806.9
17575.4
17344
17112.3
16880.5
16648.6
16416.6
16184.6
15952.6
15720.3
15488.1
15256.1
15023.8
14791.5
14559.5
14327.5
14095.4
13863.3
13631.1
13399.1
13167
12934.9
12702.8
12470.7
12238.3
12006.1
11774.1
11542
11309.9
11077.8
10845.7
10613.6
10381.5
10149.2
9916.91
9684.96
9452.86
9220.72
8988.6
8756.56
8524.22
8291.73
8059.53
7827.36
7595.08
7362.67
7130.14
6897.41
6664.2
6430.28
6195.81
5960.48
5723.53
5484.29
5241.88
4994.91
4741.5
4478.99
4204.27
3913.5
3600.86
3259.48
2885.51
2488.03
2075
1467.55
141.291
-404.982
22929.3
22509.9
22564.3
22505.2
22400.1
22342.5
22292.5
22232.5
22170
22102.4
22024.7
21934.3
21829.1
21708.3
21572.3
21421.5
21257.3
21081.3
20894.9
20699.4
20496.2
20287.3
20073.5
19855.2
19634.1
19410.7
19184.7
18957
18728.6
18499.3
18269.1
18038.3
17807.1
17575.6
17344.1
17112.3
16880.5
16648.6
16416.6
16184.6
15952.6
15720.3
15488.1
15256.1
15023.8
14791.6
14559.5
14327.5
14095.4
13863.3
13631.1
13399.1
13167
12934.9
12702.8
12470.7
12238.3
12006.1
11774.1
11542
11309.9
11077.8
10845.7
10613.6
10381.5
10149.2
9916.96
9684.95
9452.85
9220.71
8988.58
8756.5
8524.19
8291.76
8059.53
7827.33
7595.02
7362.59
7130.02
6897.23
6663.97
6430.03
6195.46
5959.93
5722.74
5483.19
5240.32
4992.72
4738.43
4474.75
4198.42
3905.3
3589.36
3243.41
2863.32
2458.97
2039.87
1421.38
71.968
-454.587
22946.2
22526
22578.1
22518.3
22412.6
22353.3
22300.6
22238.6
22176.6
22110.2
22032.4
21941.2
21835
21713.4
21576.5
21425.1
21260.3
21083.8
20897
20701.1
20497.7
20288.5
20074.4
19856
19634.7
19411.1
19185
18957.4
18728.8
18499.4
18269.2
18038.4
17807.2
17575.7
17344.1
17112.4
16880.5
16648.6
16416.6
16184.6
15952.6
15720.3
15488.1
15256.1
15023.8
14791.6
14559.6
14327.5
14095.4
13863.3
13631.1
13399.1
13167
12934.8
12702.7
12470.6
12238.3
12006.2
11774.1
11542
11309.9
11077.8
10845.7
10613.6
10381.5
10149.2
9916.99
9684.95
9452.83
9220.69
8988.56
8756.46
8524.17
8291.78
8059.54
7827.3
7594.98
7362.54
7129.94
6897.11
6663.82
6429.88
6195.25
5959.61
5722.29
5482.58
5239.47
4991.54
4736.82
4472.58
4195.47
3901.18
3583.58
3235.31
2852.13
2444.39
2022.37
1398.54
38.9481
-478.747
22949.2
22529.1
22580.5
22520.3
22413.9
22353.2
22298
22234.3
22173.6
22109.2
22032.3
21941.1
21834.7
21713
21576.2
21424.8
21260.1
21083.7
20896.9
20701
20497.8
20288.5
20074.4
19856.1
19634.8
19411.1
19185.1
18957.5
18728.9
18499.4
18269.2
18038.4
17807.2
17575.7
17344.1
17112.4
16880.5
16648.6
16416.6
16184.6
15952.5
15720.3
15488.2
15256.1
15023.9
14791.7
14559.6
14327.5
14095.4
13863.3
13631.2
13399.1
13167
12934.8
12702.7
12470.6
12238.4
12006.2
11774.1
11542
11309.9
11077.8
10845.7
10613.6
10381.4
10149.2
9917.02
9684.95
9452.82
9220.68
8988.55
8756.42
8524.16
8291.8
8059.54
7827.29
7594.96
7362.5
7129.89
6897.04
6663.74
6429.83
6195.2
5959.53
5722.19
5482.47
5239.35
4991.43
4736.72
4472.56
4195.55
3901.3
3583.74
3235.49
2852.27
2444.48
2022.43
1398.58
38.9652
-478.739
22938.7
22519.3
22571.7
22511.2
22404
22342.4
22284.9
22219.4
22160.6
22099.3
22024.1
21933.8
21828.2
21707.3
21571.3
21420.7
21256.8
21080.9
20894.6
20699.3
20496.4
20287.5
20073.6
19855.6
19634.4
19410.7
19184.8
18957.3
18728.7
18499.3
18269.1
18038.3
17807.1
17575.7
17344.1
17112.4
16880.5
16648.6
16416.6
16184.6
15952.5
15720.3
15488.2
15256.1
15023.9
14791.7
14559.6
14327.5
14095.4
13863.3
13631.2
13399.1
13167
12934.8
12702.7
12470.6
12238.4
12006.2
11774.1
11542
11309.9
11077.8
10845.7
10613.5
10381.4
10149.2
9917.04
9684.94
9452.81
9220.67
8988.54
8756.4
8524.15
8291.82
8059.55
7827.28
7594.95
7362.49
7129.88
6897.02
6663.75
6429.89
6195.31
5959.68
5722.44
5482.86
5239.97
4992.37
4738.14
4474.68
4198.64
3905.68
3589.84
3243.93
2863.74
2459.25
2040.05
1421.51
72.026
-454.56
22913.4
22496.1
22550.8
22490.2
22382.3
22320.2
22260.5
22193
22137.2
22080.2
22007.5
21919.1
21815.2
21696.1
21561.7
21412.7
21250.1
21075.5
20890.2
20695.8
20493.7
20285.4
20072
19854.3
19633.4
19409.9
19184.2
18956.9
18728.4
18499
18268.9
18038.2
17807.1
17575.7
17344.1
17112.3
16880.5
16648.6
16416.6
16184.6
15952.5
15720.3
15488.2
15256.1
15023.9
14791.7
14559.6
14327.5
14095.4
13863.3
13631.2
13399.1
13166.9
12934.8
12702.7
12470.6
12238.4
12006.2
11774.1
11542
11309.9
11077.8
10845.6
10613.5
10381.4
10149.2
9917.06
9684.94
9452.8
9220.66
8988.53
8756.38
8524.14
8291.84
8059.57
7827.29
7594.95
7362.5
7129.9
6897.06
6663.83
6430.05
6195.57
5960.07
5723.02
5483.75
5241.29
4994.33
4741.01
4478.85
4204.63
3914.13
3601.66
3260.36
2886.22
2488.51
2075.32
1467.77
141.402
-404.933
22872.6
22459.4
22517.5
22456.9
22348.7
22286.7
22224.7
22155.2
22103.3
22051.9
21982.7
21897
21795.8
21679.4
21547.5
21400.8
21240.2
21067.4
20883.6
20690.5
20489.5
20282.1
20069.4
19852.3
19631.9
19408.7
19183.3
18956.2
18727.9
18498.6
18268.6
18038
17806.9
17575.6
17344
17112.3
16880.4
16648.5
16416.5
16184.5
15952.5
15720.3
15488.2
15256.1
15023.9
14791.8
14559.6
14327.5
14095.4
13863.3
13631.2
13399.1
13166.9
12934.8
12702.7
12470.6
12238.4
12006.3
11774.1
11542
11309.9
11077.8
10845.6
10613.5
10381.4
10149.2
9917.07
9684.94
9452.8
9220.65
8988.52
8756.37
8524.14
8291.86
8059.58
7827.31
7594.97
7362.53
7129.95
6897.15
6663.98
6430.31
6195.97
5960.66
5723.91
5485.07
5243.25
4997.2
4745.19
4484.89
4213.24
3926.25
3618.59
3283.89
2918.46
2530.56
2126.14
1535.37
247.64
-329.569
22816.2
22409.5
22471.9
22411.6
22303.7
22242.7
22178.3
22106.7
22059.3
22014.4
21950
21867.9
21770.4
21657.4
21528.8
21385
21227.2
21056.7
20874.9
20683.5
20484
20277.7
20066
19849.6
19629.8
19407.1
19182.1
18955.3
18727.2
18498.1
18268.2
18037.7
17806.7
17575.4
17343.9
17112.2
16880.4
16648.5
16416.5
16184.5
15952.4
15720.3
15488.2
15256.1
15023.9
14791.8
14559.6
14327.5
14095.4
13863.3
13631.2
13399
13166.9
12934.8
12702.7
12470.6
12238.4
12006.3
11774.1
11542
11309.9
11077.8
10845.6
10613.5
10381.4
10149.2
9917.08
9684.94
9452.79
9220.65
8988.51
8756.36
8524.14
8291.87
8059.61
7827.33
7595
7362.58
7130.03
6897.28
6664.19
6430.65
6196.49
5961.44
5725.06
5486.78
5245.76
5000.86
4750.49
4492.49
4224.04
3941.42
3639.74
3313.22
2958.55
2582.83
2189.31
1620.46
389.219
-229.312
22744.3
22347.2
22414.7
22354.8
22248.3
22189.1
22122.1
22048.1
22005.8
21968.8
21909.8
21832.2
21739.2
21630.5
21505.9
21365.8
21211.2
21043.5
20864.2
20674.9
20477.1
20272.2
20061.6
19846.3
19627.2
19405.1
19180.6
18954.2
18726.3
18497.4
18267.7
18037.3
17806.4
17575.2
17343.8
17112.1
16880.3
16648.4
16416.5
16184.5
15952.4
15720.3
15488.2
15256.1
15023.9
14791.8
14559.7
14327.5
14095.4
13863.3
13631.2
13399
13166.9
12934.8
12702.7
12470.5
12238.4
12006.3
11774.1
11542
11309.9
11077.7
10845.6
10613.5
10381.4
10149.2
9917.08
9684.94
9452.79
9220.64
8988.5
8756.35
8524.14
8291.89
8059.63
7827.36
7595.04
7362.65
7130.13
6897.44
6664.45
6431.05
6197.1
5962.35
5726.42
5488.77
5248.68
5005.11
4756.62
4501.27
4236.48
3958.87
3663.98
3346.7
3004.15
2642.09
2260.76
1717.21
562.96
-106.169
22657.7
22273.6
22346.5
22287.2
22183.7
22127.3
22057.2
21980.2
21943.9
21916
21863.1
21790.9
21703
21599.4
21479.4
21343.4
21192.5
21028
20851.5
20664.6
20468.9
20265.7
20056.5
19842.2
19624
19402.6
19178.7
18952.7
18725.2
18496.6
18267.1
18036.8
17806.1
17575
17343.6
17112
16880.2
16648.3
16416.4
16184.4
15952.4
15720.3
15488.2
15256
15023.9
14791.8
14559.7
14327.5
14095.4
13863.3
13631.2
13399
13166.9
12934.8
12702.7
12470.5
12238.4
12006.3
11774.1
11542
11309.9
11077.7
10845.6
10613.5
10381.4
10149.2
9917.09
9684.94
9452.79
9220.64
8988.5
8756.35
8524.15
8291.91
8059.66
7827.39
7595.09
7362.72
7130.25
6897.62
6664.73
6431.5
6197.77
5963.35
5727.9
5490.96
5251.88
5009.74
4763.29
4510.79
4249.94
3977.68
3690.05
3382.55
3052.68
2704.78
2335.87
1819.12
762.544
36.0366
22557.7
22190.5
22268.8
22210.3
22111.8
22059.2
21985.5
21904.6
21874.8
21857.5
21811.1
21744.8
21662.9
21564.7
21449.8
21318.4
21171.6
21010.7
20837.4
20653.1
20459.6
20258.3
20050.6
19837.6
19620.4
19399.8
19176.5
18951.1
18724
18495.6
18266.3
18036.3
17805.7
17574.7
17343.4
17111.8
16880.1
16648.3
16416.3
16184.4
15952.3
15720.3
15488.2
15256
15023.9
14791.8
14559.7
14327.5
14095.4
13863.3
13631.2
13399
13166.9
12934.8
12702.7
12470.5
12238.4
12006.3
11774.2
11542
11309.9
11077.7
10845.6
10613.5
10381.4
10149.2
9917.09
9684.94
9452.79
9220.64
8988.5
8756.35
8524.15
8291.93
8059.68
7827.43
7595.15
7362.8
7130.38
6897.81
6665.03
6431.96
6198.47
5964.39
5729.43
5493.21
5255.16
5014.5
4770.13
4520.53
4263.68
3996.85
3716.52
3418.77
3101.43
2767.22
2409.96
1920.19
978.395
191.607
22446.4
22100
22183.2
22126.3
22035.8
21988.1
21910.2
21824.8
21801.8
21796.3
21756.8
21696.8
21621.1
21528.6
21418.9
21292.3
21149.7
20992.5
20822.3
20640.8
20449.7
20250.3
20044.3
19832.6
19616.5
19396.8
19174.2
18949.3
18722.6
18494.6
18265.5
18035.7
17805.3
17574.4
17343.1
17111.6
16880
16648.2
16416.3
16184.3
15952.3
15720.2
15488.1
15256
15023.9
14791.8
14559.7
14327.5
14095.4
13863.3
13631.2
13399
13166.9
12934.8
12702.7
12470.5
12238.4
12006.3
11774.2
11542
11309.9
11077.7
10845.6
10613.5
10381.4
10149.2
9917.09
9684.94
9452.79
9220.64
8988.5
8756.35
8524.16
8291.94
8059.71
7827.47
7595.2
7362.89
7130.5
6898
6665.33
6432.41
6199.14
5965.39
5730.91
5495.38
5258.33
5019.08
4776.7
4529.87
4276.83
4015.15
3741.7
3453.08
3147.24
2825.19
2477.5
2013.42
1199.05
353.799
22326.9
22005.8
22092.7
22038.1
21959.4
21916.6
21833.4
21742.3
21725.6
21732.8
21700.5
21647.1
21577.7
21491.2
21386.8
21265
21126.7
20973.3
20806.4
20627.8
20439.1
20241.8
20037.4
19827.2
19612.2
19393.4
19171.6
18947.3
18721.1
18493.4
18264.7
18035
17804.8
17574
17342.9
17111.4
16879.8
16648.1
16416.2
16184.3
15952.2
15720.2
15488.1
15256
15023.9
14791.8
14559.7
14327.5
14095.4
13863.3
13631.2
13399
13166.9
12934.8
12702.7
12470.5
12238.4
12006.3
11774.2
11542
11309.9
11077.7
10845.6
10613.5
10381.4
10149.2
9917.09
9684.94
9452.79
9220.64
8988.5
8756.35
8524.17
8291.96
8059.73
7827.5
7595.25
7362.96
7130.62
6898.18
6665.6
6432.83
6199.77
5966.33
5732.29
5497.41
5261.28
5023.35
4782.82
4538.56
4289.04
4032.12
3765
3484.69
3189.21
2877.76
2537.8
2097.73
1416.39
515.391
22203.3
21911.5
21999.9
21948.1
21884.9
21847
21756.9
21658.9
21647.6
21668.3
21643.6
21597
21534
21453.3
21354.3
21237.3
21103.3
20953.7
20790.2
20614.5
20428.2
20233
20030.4
19821.6
19607.8
19390
19168.9
18945.2
18719.5
18492.2
18263.7
18034.3
17804.2
17573.6
17342.6
17111.2
16879.7
16647.9
16416.1
16184.2
15952.2
15720.2
15488.1
15256
15023.9
14791.8
14559.7
14327.5
14095.4
13863.3
13631.2
13399
13166.9
12934.8
12702.7
12470.5
12238.4
12006.3
11774.2
11542
11309.9
11077.7
10845.6
10613.5
10381.3
10149.2
9917.09
9684.94
9452.79
9220.64
8988.5
8756.35
8524.17
8291.97
8059.76
7827.53
7595.3
7363.03
7130.72
6898.34
6665.84
6433.2
6200.33
5967.15
5733.51
5499.2
5263.89
5027.12
4788.21
4546.22
4299.8
4047.05
3785.49
3512.49
3225.99
2923.51
2590.34
2176.76
1635.93
678.488
22080.2
21821.1
21908.6
21859.6
21815.4
21781.4
21682.4
21578.1
21571.6
21605.1
21588.3
21548.5
21491.7
21416.6
21322.7
21210.3
21080.4
20934.5
20774.2
20601.3
20417.4
20224.3
20023.4
19816
19603.4
19386.5
19166.1
18943.1
18717.9
18491
18262.8
18033.6
17803.7
17573.2
17342.3
17111
16879.5
16647.8
16416
16184.1
15952.2
15720.1
15488.1
15256
15023.9
14791.8
14559.7
14327.5
14095.4
13863.3
13631.2
13399
13166.9
12934.8
12702.6
12470.5
12238.4
12006.3
11774.2
11542
11309.9
11077.7
10845.6
10613.5
10381.3
10149.2
9917.08
9684.94
9452.79
9220.64
8988.5
8756.35
8524.18
8291.98
8059.77
7827.56
7595.33
7363.09
7130.81
6898.47
6666.05
6433.5
6200.79
5967.84
5734.52
5500.68
5266.05
5030.24
4792.7
4552.6
4308.77
4059.53
3802.67
3535.86
3256.96
2961.97
2635.78
2255.45
1872.7
856.319
21963.2
21739.5
21823.2
21776.5
21753.3
21717.2
21608
21506.1
21503.8
21545.7
21536.1
21502.7
21451.7
21381.9
21292.7
21184.6
21058.6
20916.1
20758.9
20588.6
20407
20215.8
20016.6
19810.6
19599.1
19383.1
19163.5
18941
18716.3
18489.8
18261.9
18032.9
17803.2
17572.8
17342
17110.8
16879.4
16647.7
16415.9
16184.1
15952.1
15720.1
15488
15256
15023.9
14791.8
14559.7
14327.5
14095.4
13863.3
13631.2
13399
13166.9
12934.8
12702.6
12470.5
12238.4
12006.3
11774.2
11542
11309.9
11077.7
10845.6
10613.5
10381.3
10149.2
9917.08
9684.94
9452.79
9220.64
8988.5
8756.35
8524.18
8291.99
8059.79
7827.58
7595.37
7363.13
7130.88
6898.57
6666.21
6433.75
6201.16
5968.38
5735.33
5501.87
5267.79
5032.76
4796.31
4557.75
4316.05
4069.69
3816.73
3555.12
3282.66
2994.27
2676.73
2337.14
2123.47
1049.25
21858.8
21671.5
21747.8
21702.9
21703.5
21655.2
21534.4
21448.2
21450.3
21495
21491.3
21463.3
21417.2
21351.8
21266.7
21162.3
21039.6
20900.1
20745.5
20577.5
20397.9
20208.4
20010.5
19805.7
19595.2
19380
19161.1
18939.2
18714.9
18488.7
18261
18032.3
17802.7
17572.5
17341.7
17110.6
16879.2
16647.6
16415.9
16184
15952.1
15720.1
15488
15256
15023.9
14791.8
14559.7
14327.5
14095.4
13863.3
13631.2
13399
13166.9
12934.8
12702.6
12470.5
12238.4
12006.3
11774.2
11542
11309.9
11077.7
10845.6
10613.5
10381.3
10149.2
9917.08
9684.94
9452.79
9220.64
8988.5
8756.34
8524.18
8291.99
8059.8
7827.6
7595.39
7363.17
7130.92
6898.65
6666.32
6433.92
6201.42
5968.78
5735.92
5502.73
5269.04
5034.59
4798.95
4561.53
4321.39
4077.2
3827.21
3569.62
3302.21
3019.31
2711.57
2416
2359.17
1234.39
21773
21620.3
21686.4
21644.8
21672.2
21607.1
21467.8
21400.3
21409.4
21455.5
21456.2
21432.3
21390
21328
21246.1
21144.5
21024.4
20887.2
20734.6
20568.5
20390.4
20202.3
20005.6
19801.8
19592
19377.5
19159.1
18937.6
18713.7
18487.8
18260.3
18031.8
17802.3
17572.2
17341.5
17110.4
16879.1
16647.5
16415.8
16184
15952
15720
15488
15255.9
15023.9
14791.8
14559.7
14327.5
14095.4
13863.3
13631.2
13399
13166.9
12934.8
12702.6
12470.5
12238.4
12006.3
11774.1
11542
11309.9
11077.7
10845.6
10613.5
10381.3
10149.2
9917.08
9684.94
9452.79
9220.64
8988.49
8756.34
8524.18
8292
8059.81
7827.61
7595.4
7363.19
7130.95
6898.69
6666.39
6434.03
6201.59
5969.03
5736.29
5503.29
5269.86
5035.79
4800.69
4564.03
4324.96
4082.26
3834.36
3579.64
3315.92
3037.5
2740.19
2485.86
2548.83
1381.61
21710.6
21585.7
21642.3
21607.9
21659
21575.3
21414.1
21364.5
21381.5
21428.2
21432
21410.8
21371
21311.4
21231.5
21131.9
21013.6
20878
20726.9
20562
20385.1
20197.9
20002
19798.8
19589.7
19375.7
19157.7
18936.5
18712.8
18487.1
18259.8
18031.4
17802
17571.9
17341.3
17110.3
16879
16647.5
16415.8
16183.9
15952
15720
15488
15255.9
15023.9
14791.8
14559.7
14327.5
14095.4
13863.3
13631.2
13399
13166.9
12934.8
12702.6
12470.5
12238.4
12006.3
11774.1
11542
11309.9
11077.7
10845.6
10613.5
10381.3
10149.2
9917.08
9684.94
9452.79
9220.64
8988.49
8756.34
8524.18
8292
8059.81
7827.61
7595.41
7363.2
7130.97
6898.72
6666.43
6434.09
6201.68
5969.16
5736.49
5503.59
5270.3
5036.44
4801.64
4565.42
4326.97
4085.17
3838.56
3585.68
3324.36
3049.5
2762.6
2541.99
2673.39
1470.56
21673.8
21566.3
21616.9
21592.8
21652.4
21553.3
21383.6
21349.9
21369.2
21413.6
21418.8
21399.1
21360.5
21302
21223.3
21124.8
21007.4
20872.7
20722.4
20558.2
20381.9
20195.2
19999.8
19797.1
19588.3
19374.6
19156.8
18935.8
18712.2
18486.6
18259.5
18031.1
17801.8
17571.8
17341.2
17110.2
16878.9
16647.4
16415.7
16183.9
15952
15720
15488
15255.9
15023.9
14791.8
14559.7
14327.5
14095.4
13863.3
13631.2
13399
13166.9
12934.8
12702.6
12470.5
12238.4
12006.3
11774.1
11542
11309.9
11077.7
10845.6
10613.5
10381.3
10149.2
9917.08
9684.94
9452.79
9220.64
8988.49
8756.34
8524.18
8292
8059.81
7827.61
7595.41
7363.2
7130.97
6898.72
6666.44
6434.1
6201.7
5969.2
5736.54
5503.67
5270.43
5036.63
4801.95
4565.88
4327.68
4086.25
3840.24
3588.24
3328.15
3055.91
2778.69
2581.86
2727.98
1495.32
21662.4
21564.8
21609.9
21594.1
21652.5
21544.6
21375.2
21350.8
21369.6
21410.3
21416
21396.5
21358
21299.8
21221.2
21122.9
21005.7
20871.2
20721
20557
20380.9
20194.4
19999.1
19796.5
19587.8
19374.2
19156.5
18935.5
18712