/*--------------------------------*- C++ -*----------------------------------*\
| =========                 |                                                 |
| \\      /  F ield         | foam-extend: Open Source CFD                    |
|  \\    /   O peration     | Version:     5.0                                |
|   \\  /    A nd           | Web:         http://www.foam-extend.org         |
|    \\/     M anipulation  |                                                 |
\*---------------------------------------------------------------------------*/
FoamFile
{
    version     2.0;
    format      ascii;
    class       volScalarField;
    location    "0.04";
    object      pd;
}
// * * * * * * * * * * * * * * * * * * * * * * * * * * * * * * * * * * * * * //

dimensions      [1 -1 -2 0 0 0 0];

internalField   nonuniform List<scalar> 
4000
(
21583.6
21470.9
21530.2
21532.8
21514.1
21515.6
21529.8
21539.3
21535.9
21510.1
21467.8
21425.1
21381.6
21323.4
21240.2
21137.1
21017.9
20882.5
20729.3
20562.1
20383.5
20195.4
20000.8
19797.6
19587.4
19373.4
19156.1
18935.1
18711.8
18486.5
18259.5
18031.1
17801.6
17571.6
17341.1
17110.3
16879.2
16647.8
16416.2
16184.5
15952.6
15720.5
15488.4
15256.4
15024.2
14791.9
14559.8
14327.8
14095.8
13863.7
13631.6
13399.5
13167.5
12935.5
12703.4
12471.2
12238.9
12006.6
11774.5
11542.5
11310.4
11078.3
10846.3
10614.2
10382.1
10149.7
9917.46
9685.41
9453.38
9221.31
8989.24
8757.18
8524.92
8292.52
8060.34
7828.33
7596.31
7364.3
7132.33
6900.38
6668.27
6435.93
6203.65
5971.52
5739.38
5506.78
5273.39
5039.67
4804.96
4566.99
4326.49
4081.9
3830.96
3572.94
3311.01
3044.5
2789.02
2630.46
2679.13
1395.33
21562.3
21450.6
21515.2
21517.4
21498.6
21501.5
21516.8
21527
21524.8
21500.4
21458.9
21417.2
21374.4
21316.9
21234.2
21131.9
21013.4
20878.7
20726
20559.4
20381.2
20193.5
19999.4
19796.4
19586.4
19372.7
19155.5
18934.7
18711.4
18486.2
18259.3
18030.9
17801.4
17571.5
17341.1
17110.2
16879.1
16647.8
16416.2
16184.5
15952.6
15720.5
15488.4
15256.4
15024.2
14791.9
14559.8
14327.8
14095.8
13863.7
13631.6
13399.5
13167.5
12935.4
12703.4
12471.2
12238.9
12006.6
11774.5
11542.5
11310.4
11078.3
10846.3
10614.2
10382.1
10149.7
9917.45
9685.42
9453.39
9221.31
8989.24
8757.19
8524.93
8292.52
8060.35
7828.34
7596.33
7364.32
7132.35
6900.42
6668.34
6436.02
6203.77
5971.71
5739.64
5507.14
5273.87
5040.37
4805.97
4568.35
4328.36
4084.6
3834.66
3577.58
3316.63
3050.27
2789.28
2618.37
2693.3
1422.02
21553.1
21435.2
21508.2
21509.4
21489.1
21492.8
21509
21520
21519.6
21495.4
21453.1
21411.8
21370
21313.3
21231.2
21129.5
21011.5
20877.2
20724.6
20558.2
20380.3
20192.6
19998.9
19796
19586.1
19372.4
19155.3
18934.5
18711.3
18486.2
18259.2
18030.9
17801.4
17571.4
17341.1
17110.2
16879.1
16647.8
16416.2
16184.5
15952.6
15720.5
15488.4
15256.4
15024.2
14791.9
14559.8
14327.8
14095.8
13863.7
13631.6
13399.5
13167.5
12935.4
12703.4
12471.3
12238.9
12006.5
11774.5
11542.5
11310.4
11078.3
10846.3
10614.2
10382.1
10149.7
9917.44
9685.43
9453.39
9221.31
8989.23
8757.2
8524.94
8292.51
8060.35
7828.35
7596.34
7364.33
7132.37
6900.46
6668.4
6436.08
6203.86
5971.83
5739.83
5507.43
5274.2
5040.81
4806.71
4569.32
4329.77
4086.6
3837.14
3580.42
3320.01
3053.19
2785.51
2604.22
2723.56
1468.59
21565.7
21434.3
21516.3
21515.6
21491.8
21495.5
21511.8
21523.2
21524.1
21498.4
21453.3
21412.5
21371.6
21314.9
21233.1
21131.6
21013.2
20879
20726
20559.4
20381.3
20193.4
19999.7
19796.8
19586.5
19372.7
19155.7
18934.7
18711.5
18486.3
18259.4
18031
17801.5
17571.4
17341.1
17110.2
16879.1
16647.8
16416.2
16184.5
15952.7
15720.5
15488.3
15256.4
15024.2
14791.8
14559.8
14327.8
14095.8
13863.7
13631.6
13399.5
13167.5
12935.4
12703.4
12471.3
12238.9
12006.5
11774.5
11542.5
11310.4
11078.3
10846.3
10614.2
10382.1
10149.7
9917.41
9685.43
9453.39
9221.3
8989.23
8757.24
8524.96
8292.48
8060.34
7828.36
7596.35
7364.33
7132.37
6900.48
6668.44
6436.11
6203.89
5971.86
5739.91
5507.59
5274.32
5040.86
4806.93
4569.69
4330.49
4087.48
3836.97
3580.56
3320.73
3051.96
2776.03
2579.89
2726.24
1494.67
21605.3
21453.4
21543.8
21539.8
21510.5
21512.9
21528.4
21539.1
21539.9
21508.8
21461
21423.5
21382.1
21323.6
21241.1
21138.7
21019.3
20883.9
20730.6
20563.9
20384.5
20195.8
20002
19798.7
19587.8
19373.7
19156.6
18935.4
18712
18486.8
18259.8
18031.3
17801.6
17571.5
17341.2
17110.3
16879.2
16647.8
16416.2
16184.5
15952.7
15720.5
15488.3
15256.5
15024.2
14791.8
14559.8
14327.8
14095.8
13863.7
13631.6
13399.5
13167.5
12935.4
12703.4
12471.3
12238.9
12006.5
11774.5
11542.5
11310.4
11078.3
10846.3
10614.2
10382.2
10149.7
9917.37
9685.43
9453.38
9221.29
8989.22
8757.29
8524.99
8292.44
8060.32
7828.35
7596.34
7364.32
7132.35
6900.48
6668.45
6436.1
6203.87
5971.79
5739.76
5507.46
5274.27
5040.62
4806.54
4569.14
4330.05
4086.74
3834.48
3577.52
3317.4
3045.67
2760.07
2540.12
2671.74
1469.96
21672.4
21494.6
21591.8
21582.9
21546.4
21546.4
21560
21568.5
21565.8
21528.1
21479.6
21445.2
21401.6
21339.8
21255.4
21151.3
21030
20892.6
20738.4
20571.2
20390
20199.8
20005.7
19801.7
19590
19375.6
19158.2
18936.5
18712.9
18487.5
18260.3
18031.8
17801.9
17571.7
17341.4
17110.4
16879.3
16647.9
16416.3
16184.5
15952.8
15720.5
15488.3
15256.6
15024.2
14791.7
14559.8
14327.8
14095.8
13863.7
13631.6
13399.5
13167.5
12935.4
12703.4
12471.4
12238.8
12006.4
11774.5
11542.5
11310.4
11078.3
10846.3
10614.2
10382.3
10149.7
9917.3
9685.43
9453.38
9221.29
8989.2
8757.36
8525.04
8292.37
8060.28
7828.35
7596.34
7364.3
7132.32
6900.47
6668.43
6435.98
6203.71
5971.64
5739.49
5506.96
5273.87
5040.11
4805.61
4567.47
4327.21
4082.97
3830.16
3572.08
3309.65
3033.97
2737.88
2484.15
2547.33
1381.11
21764.6
21557.1
21659.1
21644.3
21599
21595.5
21606.1
21610.7
21601.4
21558.1
21509.7
21476.4
21429.1
21363.1
21275.8
21169
21045
20905.1
20749.2
20580.9
20397.5
20205.5
20010.8
19805.5
19593.1
19378.4
19160.4
18938
18714.1
18488.5
18261.1
18032.4
17802.4
17572
17341.6
17110.6
16879.4
16648
16416.4
16184.6
15952.9
15720.6
15488.2
15256.7
15024.2
14791.6
14559.7
14327.8
14095.8
13863.7
13631.5
13399.5
13167.6
12935.4
12703.4
12471.5
12238.8
12006.3
11774.5
11542.5
11310.4
11078.3
10846.2
10614.2
10382.4
10149.7
9917.21
9685.43
9453.38
9221.28
8989.18
8757.46
8525.09
8292.27
8060.22
7828.33
7596.32
7364.26
7132.27
6900.43
6668.39
6435.78
6203.4
5971.37
5739.06
5506.13
5272.82
5039.08
4804.19
4564.64
4322.47
4076.79
3823.05
3562.96
3296.75
3016.17
2709.53
2414.5
2357.87
1234.01
21876
21637.2
21742.2
21720.9
21665.8
21658.1
21664.6
21661.2
21644.4
21600.7
21552.3
21515.9
21463.6
21392.4
21301.5
21191.2
21063.7
20920.7
20762.5
20592.1
20406.7
20212.9
20016.8
19810.1
19597
19382
19163
18939.8
18715.5
18489.5
18261.9
18033.2
17802.9
17572.3
17341.9
17110.9
16879.6
16648.1
16416.4
16184.7
15953.1
15720.6
15488.2
15256.8
15024.2
14791.5
14559.7
14327.8
14095.8
13863.7
13631.5
13399.6
13167.6
12935.4
12703.4
12471.6
12238.8
12006.2
11774.6
11542.5
11310.4
11078.3
10846.2
10614.2
10382.5
10149.7
9917.09
9685.44
9453.37
9221.28
8989.16
8757.57
8525.15
8292.14
8060.16
7828.3
7596.28
7364.22
7132.2
6900.38
6668.31
6435.48
6202.94
5970.84
5738.3
5505.09
5271.38
5037.16
4801.42
4560.62
4316.3
4068.4
3812.72
3549.34
3277.98
2991.54
2674.97
2335.86
2122.41
1049.03
22000.3
21730.3
21835.6
21807.6
21742.6
21730.2
21731.9
21719.9
21695.6
21651.5
21602.5
21561.3
21503
21426.3
21331
21216.7
21085.2
20938.6
20777.6
20604.3
20417
20221.9
20023.5
19815.4
19601.5
19385.9
19165.8
18941.8
18717.1
18490.8
18262.9
18034.2
17803.5
17572.6
17342.3
17111.1
16879.8
16648.3
16416.5
16184.7
15953.3
15720.7
15488.1
15256.9
15024.2
14791.4
14559.7
14327.8
14095.8
13863.7
13631.5
13399.6
13167.6
12935.4
12703.4
12471.8
12238.8
12006.1
11774.6
11542.5
11310.4
11078.3
10846.3
10614.2
10382.6
10149.7
9916.94
9685.45
9453.37
9221.28
8989.15
8757.71
8525.2
8291.98
8060.08
7828.26
7596.24
7364.16
7132.12
6900.3
6668.19
6435.08
6202.35
5970.15
5737.3
5503.71
5269.47
5034.4
4797.24
4555
4308.58
4057.84
3798.99
3530.91
3252.99
2959.63
2634.3
2254.4
1871.9
856.252
22130.8
21831.3
21934.9
21900.4
21825.9
21807.9
21803
21783.8
21753
21706.5
21655.5
21608.7
21544.4
21462
21362.1
21243.4
21107.8
20957.4
20793.3
20616.9
20427.7
20231.2
20030.5
19820.9
19606.2
19389.8
19168.6
18943.8
18718.9
18492.1
18263.9
18035.1
17804.1
17572.9
17342.6
17111.3
16880
16648.4
16416.6
16184.8
15953.5
15720.7
15488
15257.1
15024.2
14791.2
14559.7
14327.8
14095.9
13863.7
13631.5
13399.6
13167.6
12935.4
12703.4
12471.9
12238.8
12005.9
11774.6
11542.5
11310.4
11078.3
10846.3
10614.2
10382.8
10149.6
9916.76
9685.46
9453.37
9221.28
8989.15
8757.87
8525.25
8291.78
8059.98
7828.22
7596.18
7364.08
7132.01
6900.2
6668.04
6434.58
6201.64
5969.32
5736.1
5502.02
5267.09
5030.86
4792.14
4548.23
4299.32
4045.26
3782.24
3508.29
3222.63
2921.52
2589.1
2175.91
1635.37
678.547
22261.8
21935.5
22035.4
21995
21912.1
21888.3
21876.6
21850.7
21814
21764.1
21710.2
21657.2
21586.9
21498.9
21394
21270.7
21130.7
20976.5
20809.3
20629.8
20438.6
20240.4
20037.5
19826.5
19610.8
19393.6
19171.3
18945.8
18720.6
18493.5
18264.9
18036
17804.7
17573.2
17342.9
17111.6
16880.2
16648.5
16416.7
16184.9
15953.6
15720.7
15487.9
15257.2
15024.2
14791.1
14559.7
14327.8
14095.9
13863.7
13631.5
13399.6
13167.7
12935.4
12703.4
12472
12238.7
12005.8
11774.6
11542.5
11310.4
11078.3
10846.3
10614.3
10382.9
10149.6
9916.63
9685.48
9453.37
9221.29
8989.15
8757.97
8525.26
8291.63
8059.9
7828.19
7596.12
7363.99
7131.87
6900.06
6667.79
6434.02
6200.86
5968.34
5734.69
5500.01
5264.19
5026.65
4786.15
4540.21
4288.45
4030.42
3762.22
3481.18
3186.38
2876.09
2536.8
2097.08
1416.03
515.537
22388.7
22038.9
22133.3
22087.9
21998.1
21968.4
21950.1
21917.9
21875.5
21822
21764.4
21705.2
21629.1
21535.6
21425.5
21297.6
21153.3
20995.4
20825
20642.5
20449.2
20249.2
20044.3
19831.9
19615.2
19397.1
19174
18947.9
18722.2
18494.8
18265.9
18036.6
17805.2
17573.7
17343.3
17111.8
16880.3
16648.7
16416.8
16185
15953.6
15720.7
15488
15257.1
15024.2
14791.3
14559.8
14327.9
14095.9
13863.7
13631.5
13399.6
13167.7
12935.4
12703.4
12471.9
12238.7
12005.9
11774.6
11542.5
11310.4
11078.3
10846.3
10614.3
10382.7
10149.6
9916.74
9685.49
9453.38
9221.29
8989.16
8757.83
8525.14
8291.71
8059.94
7828.15
7596.05
7363.88
7131.71
6899.74
6667.32
6433.54
6200.19
5967.25
5733.1
5497.74
5260.92
5021.94
4779.49
4531.2
4276.23
4013.67
3739.44
3450.18
3144.88
2823.8
2476.7
2012.95
1198.85
354.013
22507.3
22137.9
22226.2
22177
22081.8
22046.2
22021.7
21983.5
21935.8
21878.8
21817.1
21751.5
21669.6
21570.8
21455.6
21323.2
21174.9
21013.3
20839.7
20654.5
20459.2
20257.4
20050.6
19836.9
19619.3
19400.2
19176.5
18949.9
18723.7
18496
18266.8
18037.1
17805.7
17574.2
17343.6
17112.1
16880.5
16648.8
16416.9
16185
15953.4
15720.7
15488.2
15257
15024.2
14791.4
14559.8
14327.9
14095.9
13863.7
13631.5
13399.6
13167.6
12935.4
12703.4
12471.7
12238.7
12006
11774.6
11542.5
11310.4
11078.3
10846.3
10614.2
10382.6
10149.5
9916.89
9685.5
9453.39
9221.29
8989.15
8757.64
8525.02
8291.84
8059.99
7828.1
7595.97
7363.75
7131.52
6899.39
6666.8
6433.04
6199.49
5966.09
5731.41
5495.32
5257.45
5016.95
4772.45
4521.62
4263.2
3995.72
3714.7
3416.36
3099.49
2766.1
2409.36
1919.87
978.334
191.876
22614.5
22229.2
22310.8
22258.8
22160
22119.4
22089.3
22046
21993.8
21933.5
21867.8
21796
21708.7
21604.7
21484.4
21347.5
21195.4
21030.3
20853.6
20665.8
20468.5
20265
20056.5
19841.5
19623.2
19403.1
19178.7
18951.8
18725.1
18497
18267.5
18037.6
17806.2
17574.7
17343.8
17112.3
16880.6
16648.9
16417
16185.1
15953.3
15720.8
15488.3
15256.9
15024.2
14791.6
14559.9
14327.9
14095.9
13863.7
13631.6
13399.6
13167.6
12935.4
12703.4
12471.5
12238.7
12006.2
11774.6
11542.5
11310.4
11078.3
10846.2
10614.2
10382.4
10149.6
9917.03
9685.49
9453.4
9221.27
8989.15
8757.47
8524.92
8291.95
8060.01
7828.05
7595.88
7363.62
7131.32
6899.03
6666.27
6432.51
6198.76
5964.88
5729.65
5492.81
5253.86
5011.81
4765.33
4511.89
4249.61
3976.72
3688.52
3380.58
3051.14
2703.92
2335.44
1818.94
762.604
36.3514
22708.2
22310.4
22385.3
22331.1
22229.9
22184.8
22149.7
22101.9
22046
21982.9
21913.4
21836.2
21743.8
21635
21510.2
21369.4
21213.7
21045.5
20865.9
20675.8
20476.9
20271.7
20061.6
19845.5
19626.5
19405.7
19180.6
18953.5
18726.3
18497.9
18268.1
18037.9
17806.7
17575.1
17344
17112.4
16880.8
16648.9
16417
16185.1
15953.3
15720.8
15488.4
15256.8
15024.2
14791.7
14559.9
14327.9
14095.9
13863.8
13631.6
13399.6
13167.6
12935.4
12703.3
12471.4
12238.7
12006.3
11774.6
11542.5
11310.4
11078.3
10846.2
10614.2
10382.3
10149.6
9917.15
9685.48
9453.39
9221.26
8989.14
8757.32
8524.85
8292.05
8060.02
7828
7595.8
7363.49
7131.13
6898.7
6665.8
6432.01
6198.05
5963.72
5727.98
5490.42
5250.44
5006.92
4758.36
4502.22
4236.25
3958.07
3662.74
3345.16
3002.97
2641.46
2260.49
1717.16
563.12
-105.815
22787
22380
22448.5
22392.7
22289.9
22240.8
22201.3
22149.6
22090.9
22025.4
21952.8
21870.9
21774
21661.1
21532.4
21388
21229.4
21058.4
20876.4
20684.3
20483.9
20277.4
20066
19849.1
19629.4
19407.7
19182.2
18954.9
18727.3
18498.6
18268.6
18038.2
17807
17575.4
17344.2
17112.6
16880.9
16649
16417.1
16185.1
15953.2
15720.8
15488.5
15256.7
15024.2
14791.8
14560
14328
14095.9
13863.8
13631.6
13399.6
13167.6
12935.4
12703.3
12471.3
12238.7
12006.4
11774.6
11542.5
11310.4
11078.3
10846.2
10614.2
10382.2
10149.6
9917.25
9685.47
9453.38
9221.24
8989.12
8757.21
8524.79
8292.12
8060.02
7827.95
7595.71
7363.37
7130.94
6898.4
6665.37
6431.53
6197.38
5962.66
5726.45
5488.23
5247.3
5002.43
4751.94
4493.29
4223.91
3940.83
3638.8
3312.07
2957.7
2582.42
2189.2
1620.53
389.463
-228.925
22850.3
22436.9
22499.7
22442.6
22338.8
22286.3
22242.8
22187.9
22127.1
22060.1
21984.9
21899.2
21798.7
21682.3
21550.3
21403.1
21242
21068.8
20884.9
20691.2
20489.6
20282
20069.5
19852
19631.7
19409.2
19183.5
18956.1
18728.1
18499.1
18269
18038.5
17807.2
17575.7
17344.4
17112.7
16880.9
16649
16417.1
16185.1
15953.1
15720.8
15488.5
15256.6
15024.3
14791.9
14560
14328
14095.9
13863.8
13631.6
13399.6
13167.5
12935.4
12703.3
12471.2
12238.8
12006.5
11774.6
11542.5
11310.4
11078.3
10846.2
10614.1
10382.1
10149.6
9917.33
9685.46
9453.37
9221.23
8989.1
8757.12
8524.74
8292.18
8060.02
7827.9
7595.64
7363.26
7130.77
6898.13
6664.99
6431.12
6196.79
5961.73
5725.11
5486.32
5244.56
4998.52
4746.4
4485.59
4213.23
3925.88
3617.97
3283.13
2917.93
2530.36
2126.17
1535.55
247.956
-329.153
22897.9
22480.5
22538.5
22480.3
22375.8
22320.5
22273.6
22215.9
22153.8
22086
22009.1
21920.6
21817.3
21698.3
21563.9
21414.5
21251.5
21076.6
20891.2
20696.4
20493.9
20285.4
20072.2
19854.2
19633.4
19410.4
19184.5
18956.9
18728.7
18499.5
18269.3
18038.7
17807.4
17575.9
17344.5
17112.8
16881
16649.1
16417.1
16185.1
15953.1
15720.8
15488.6
15256.6
15024.3
14792
14560
14328
14095.9
13863.8
13631.6
13399.6
13167.5
12935.4
12703.3
12471.2
12238.8
12006.6
11774.6
11542.5
11310.4
11078.3
10846.2
10614.1
10382
10149.6
9917.4
9685.45
9453.35
9221.21
8989.09
8757.05
8524.71
8292.22
8060.02
7827.85
7595.57
7363.16
7130.63
6897.9
6664.69
6430.77
6196.3
5960.97
5724.02
5484.78
5242.37
4995.4
4741.99
4479.48
4204.76
3913.99
3601.35
3259.97
2886
2488.52
2075.49
1468.04
141.781
-404.492
22929.8
22510.4
22564.8
22505.7
22400.6
22343
22293
22233
22170.4
22102.9
22025.2
21934.8
21829.6
21708.8
21572.8
21422
21257.8
21081.8
20895.4
20699.9
20496.7
20287.8
20074
19855.7
19634.6
19411.2
19185.2
18957.5
18729.1
18499.8
18269.5
18038.8
17807.6
17576
17344.5
17112.8
16881
16649.1
16417.1
16185.1
15953.1
15720.8
15488.6
15256.6
15024.3
14792.1
14560
14328
14095.9
13863.8
13631.6
13399.6
13167.5
12935.4
12703.2
12471.1
12238.8
12006.6
11774.6
11542.5
11310.4
11078.3
10846.2
10614.1
10382
10149.7
9917.45
9685.45
9453.34
9221.2
8989.07
8756.99
8524.68
8292.25
8060.02
7827.82
7595.51
7363.08
7130.51
6897.72
6664.46
6430.52
6195.95
5960.42
5723.24
5483.68
5240.81
4993.21
4738.92
4475.24
4198.91
3905.79
3589.85
3243.9
2863.81
2459.46
2040.36
1421.87
72.4585
-454.096
22946.7
22526.5
22578.6
22518.8
22413.1
22353.8
22301
22239.1
22177.1
22110.7
22032.9
21941.7
21835.5
21713.8
21577
21425.6
21260.8
21084.3
20897.5
20701.6
20498.2
20289
20074.9
19856.5
19635.2
19411.6
19185.5
18957.9
18729.3
18499.9
18269.6
18038.9
17807.6
17576.1
17344.6
17112.9
16881
16649.1
16417.1
16185.1
15953
15720.8
15488.6
15256.6
15024.3
14792.1
14560.1
14328
14095.9
13863.8
13631.6
13399.6
13167.5
12935.3
12703.2
12471.1
12238.8
12006.7
11774.6
11542.5
11310.4
11078.3
10846.2
10614.1
10382
10149.7
9917.48
9685.44
9453.32
9221.18
8989.05
8756.95
8524.66
8292.28
8060.03
7827.79
7595.47
7363.03
7130.43
6897.6
6664.31
6430.37
6195.74
5960.1
5722.79
5483.07
5239.96
4992.03
4737.31
4473.07
4195.96
3901.67
3584.08
3235.81
2852.63
2444.88
2022.86
1399.04
39.4386
-478.257
22949.7
22529.6
22581
22520.8
22414.4
22353.7
22298.5
22234.8
22174.1
22109.7
22032.8
21941.6
21835.2
21713.5
21576.7
21425.3
21260.6
21084.2
20897.4
20701.5
20498.2
20289
20074.9
19856.6
19635.3
19411.6
19185.6
18957.9
18729.3
18499.9
18269.7
18038.9
17807.7
17576.2
17344.6
17112.9
16881
16649.1
16417.1
16185.1
15953
15720.8
15488.7
15256.6
15024.4
14792.2
14560.1
14328
14095.9
13863.8
13631.6
13399.6
13167.5
12935.3
12703.2
12471.1
12238.9
12006.7
11774.6
11542.5
11310.4
11078.3
10846.2
10614.1
10381.9
10149.7
9917.51
9685.44
9453.31
9221.17
8989.04
8756.92
8524.65
8292.3
8060.03
7827.78
7595.45
7362.99
7130.38
6897.53
6664.23
6430.32
6195.69
5960.02
5722.68
5482.96
5239.84
4991.92
4737.21
4473.05
4196.04
3901.79
3584.23
3235.98
2852.76
2444.97
2022.92
1399.07
39.4557
-478.249
22939.2
22519.8
22572.2
22511.7
22404.5
22342.9
22285.4
22219.8
22161.1
22099.8
22024.6
21934.3
21828.7
21707.8
21571.8
21421.2
21257.3
21081.4
20895.1
20699.8
20496.9
20288
20074.1
19856
19634.8
19411.2
19185.3
18957.8
18729.2
18499.8
18269.6
18038.8
17807.6
17576.2
17344.6
17112.9
16881
16649.1
16417.1
16185.1
15953
15720.8
15488.7
15256.6
15024.4
14792.2
14560.1
14328
14095.9
13863.8
13631.6
13399.6
13167.4
12935.3
12703.2
12471.1
12238.9
12006.7
11774.6
11542.5
11310.4
11078.3
10846.1
10614
10381.9
10149.7
9917.53
9685.43
9453.3
9221.16
8989.03
8756.89
8524.64
8292.31
8060.04
7827.77
7595.44
7362.98
7130.37
6897.51
6664.24
6430.38
6195.8
5960.18
5722.93
5483.35
5240.46
4992.86
4738.63
4475.17
4199.13
3906.17
3590.33
3244.42
2864.23
2459.74
2040.55
1422
72.5165
-454.07
22913.9
22496.6
22551.3
22490.7
22382.8
22320.7
22261
22193.4
22137.7
22080.7
22008
21919.5
21815.7
21696.6
21562.2
21413.2
21250.6
21076
20890.7
20696.3
20494.2
20285.9
20072.5
19854.8
19633.9
19410.4
19184.7
18957.4
18728.9
18499.5
18269.4
18038.7
17807.5
17576.1
17344.6
17112.8
16881
16649.1
16417.1
16185
15953
15720.8
15488.7
15256.6
15024.4
14792.2
14560.1
14328
14095.9
13863.8
13631.6
13399.5
13167.4
12935.3
12703.2
12471.1
12238.9
12006.7
11774.6
11542.5
11310.4
11078.3
10846.1
10614
10381.9
10149.7
9917.55
9685.43
9453.29
9221.15
8989.02
8756.87
8524.63
8292.33
8060.06
7827.78
7595.44
7362.99
7130.39
6897.55
6664.32
6430.54
6196.06
5960.56
5723.51
5484.24
5241.78
4994.82
4741.5
4479.34
4205.12
3914.62
3602.15
3260.85
2886.72
2489
2075.81
1468.26
141.893
-404.443
22873.1
22459.9
22518
22457.4
22349.2
22287.2
22225.2
22155.7
22103.8
22052.4
21983.2
21897.5
21796.3
21679.9
21548
21401.2
21240.7
21067.9
20884.1
20691
20490
20282.6
20069.9
19852.8
19632.3
19409.2
19183.8
18956.7
18728.4
18499.1
18269.1
18038.5
17807.4
17576
17344.5
17112.8
16880.9
16649
16417
16185
15952.9
15720.8
15488.7
15256.6
15024.4
14792.2
14560.1
14328
14095.9
13863.8
13631.6
13399.5
13167.4
12935.3
12703.2
12471
12238.9
12006.7
11774.6
11542.5
11310.4
11078.3
10846.1
10614
10381.9
10149.7
9917.56
9685.43
9453.29
9221.14
8989.01
8756.86
8524.63
8292.35
8060.07
7827.8
7595.46
7363.02
7130.44
6897.64
6664.47
6430.8
6196.46
5961.15
5724.4
5485.56
5243.74
4997.69
4745.68
4485.38
4213.73
3926.74
3619.08
3284.38
2918.95
2531.05
2126.63
1535.86
248.13
-329.079
22816.7
22410
22472.4
22412.1
22304.2
22243.2
22178.8
22107.2
22059.8
22014.9
21950.5
21868.4
21770.8
21657.9
21529.3
21385.5
21227.7
21057.1
20875.4
20684
20484.5
20278.2
20066.4
19850.1
19630.3
19407.6
19182.6
18955.8
18727.7
18498.6
18268.7
18038.2
17807.2
17575.9
17344.4
17112.7
16880.9
16649
16417
16185
15952.9
15720.8
15488.7
15256.5
15024.4
14792.3
14560.1
14328
14095.9
13863.8
13631.6
13399.5
13167.4
12935.3
12703.2
12471
12238.9
12006.8
11774.6
11542.5
11310.4
11078.2
10846.1
10614
10381.9
10149.7
9917.57
9685.43
9453.28
9221.14
8989
8756.85
8524.63
8292.36
8060.1
7827.82
7595.49
7363.07
7130.52
6897.77
6664.68
6431.14
6196.98
5961.93
5725.55
5487.27
5246.25
5001.35
4750.98
4492.98
4224.53
3941.92
3640.23
3313.71
2959.04
2583.32
2189.8
1620.95
389.709
-228.821
22744.8
22347.7
22415.2
22355.3
22248.8
22189.6
22122.5
22048.6
22006.3
21969.2
21910.3
21832.7
21739.7
21631
21506.4
21366.3
21211.7
21044
20864.7
20675.3
20477.5
20272.7
20062.1
19846.8
19627.7
19405.6
19181.1
18954.6
18726.8
18497.9
18268.2
18037.8
17806.9
17575.7
17344.2
17112.6
16880.8
16648.9
16417
16184.9
15952.9
15720.8
15488.7
15256.5
15024.4
14792.3
14560.1
14328
14095.9
13863.8
13631.6
13399.5
13167.4
12935.3
12703.2
12471
12238.9
12006.8
11774.6
11542.5
11310.4
11078.2
10846.1
10614
10381.9
10149.7
9917.57
9685.43
9453.28
9221.13
8989
8756.84
8524.63
8292.38
8060.12
7827.85
7595.53
7363.14
7130.62
6897.93
6664.94
6431.54
6197.59
5962.84
5726.91
5489.26
5249.17
5005.6
4757.11
4501.76
4236.97
3959.36
3664.47
3347.19
3004.64
2642.58
2261.25
1717.7
563.451
-105.678
22658.2
22274.1
22347
22287.7
22184.1
22127.8
22057.7
21980.7
21944.4
21916.5
21863.6
21791.3
21703.5
21599.8
21479.8
21343.9
21193
21028.5
20852
20665.1
20469.3
20266.2
20057
19842.7
19624.5
19403.1
19179.2
18953.2
18725.7
18497.1
18267.5
18037.3
17806.6
17575.5
17344.1
17112.5
16880.7
16648.8
16416.9
16184.9
15952.9
15720.8
15488.7
15256.5
15024.4
14792.3
14560.2
14328
14095.9
13863.8
13631.6
13399.5
13167.4
12935.3
12703.2
12471
12238.9
12006.8
11774.6
11542.5
11310.4
11078.2
10846.1
10614
10381.9
10149.7
9917.58
9685.43
9453.28
9221.13
8988.99
8756.84
8524.64
8292.4
8060.15
7827.88
7595.58
7363.21
7130.74
6898.11
6665.22
6431.99
6198.26
5963.84
5728.39
5491.45
5252.37
5010.23
4763.78
4511.28
4250.43
3978.17
3690.54
3383.04
3053.17
2705.27
2336.36
1819.61
763.035
36.5271
22558.2
22191
22269.3
22210.8
22112.3
22059.7
21986
21905.1
21875.3
21857.9
21811.6
21745.3
21663.3
21565.2
21450.3
21318.9
21172.1
21011.2
20837.8
20653.6
20460.1
20258.8
20051.1
19838.1
19620.9
19400.3
19177
18951.6
18724.5
18496.1
18266.8
18036.8
17806.2
17575.2
17343.9
17112.3
16880.6
16648.7
16416.8
16184.9
15952.8
15720.7
15488.6
15256.5
15024.4
14792.3
14560.2
14328
14095.9
13863.8
13631.6
13399.5
13167.4
12935.3
12703.1
12471
12238.9
12006.8
11774.6
11542.5
11310.4
11078.2
10846.1
10614
10381.9
10149.7
9917.58
9685.43
9453.28
9221.13
8988.99
8756.84
8524.65
8292.42
8060.17
7827.92
7595.64
7363.3
7130.87
6898.3
6665.52
6432.45
6198.96
5964.88
5729.92
5493.7
5255.65
5014.99
4770.62
4521.02
4264.17
3997.34
3717.01
3419.26
3101.92
2767.71
2410.45
1920.68
978.885
192.098
22446.9
22100.5
22183.7
22126.8
22036.3
21988.6
21910.7
21825.3
21802.3
21796.8
21757.3
21697.3
21621.6
21529.1
21419.4
21292.8
21150.2
20993
20822.8
20641.3
20450.1
20250.8
20044.7
19833.1
19617
19397.3
19174.6
18949.7
18723.1
18495.1
18266
18036.2
17805.7
17574.8
17343.6
17112.1
16880.5
16648.7
16416.8
16184.8
15952.8
15720.7
15488.6
15256.5
15024.4
14792.3
14560.2
14328
14095.9
13863.8
13631.6
13399.5
13167.4
12935.3
12703.1
12471
12238.9
12006.8
11774.6
11542.5
11310.4
11078.2
10846.1
10614
10381.8
10149.7
9917.58
9685.43
9453.28
9221.13
8988.99
8756.84
8524.65
8292.43
8060.2
7827.96
7595.69
7363.38
7130.99
6898.49
6665.82
6432.9
6199.63
5965.88
5731.4
5495.87
5258.82
5019.57
4777.19
4530.36
4277.32
4015.64
3742.19
3453.57
3147.73
2825.68
2477.99
2013.91
1199.54
354.29
22327.4
22006.3
22093.1
22038.6
21959.9
21917.1
21833.9
21742.8
21726.1
21733.3
21701
21647.6
21578.2
21491.7
21387.3
21265.5
21127.2
20973.8
20806.9
20628.3
20439.6
20242.3
20037.9
19827.7
19612.7
19393.9
19172.1
18947.8
18721.6
18493.9
18265.2
18035.5
17805.3
17574.5
17343.3
17111.9
16880.3
16648.5
16416.7
16184.7
15952.7
15720.7
15488.6
15256.5
15024.4
14792.3
14560.2
14328
14095.9
13863.8
13631.6
13399.5
13167.4
12935.3
12703.1
12471
12238.9
12006.8
11774.6
11542.5
11310.4
11078.2
10846.1
10614
10381.8
10149.7
9917.58
9685.43
9453.28
9221.13
8988.99
8756.84
8524.66
8292.45
8060.23
7827.99
7595.74
7363.45
7131.11
6898.67
6666.09
6433.32
6200.27
5966.82
5732.78
5497.9
5261.77
5023.84
4783.31
4539.05
4289.53
4032.61
3765.49
3485.18
3189.7
2878.25
2538.29
2098.22
1416.88
515.881
22203.7
21912
22000.4
21948.6
21885.4
21847.5
21757.4
21659.4
21648.1
21668.8
21644.1
21597.5
21534.5
21453.8
21354.8
21237.8
21103.8
20954.2
20790.7
20614.9
20428.7
20233.5
20030.9
19822.1
19608.3
19390.5
19169.4
18945.7
18720
18492.7
18264.2
18034.8
17804.7
17574.1
17343.1
17111.7
16880.2
16648.4
16416.6
16184.7
15952.7
15720.7
15488.6
15256.5
15024.4
14792.3
14560.2
14328
14095.9
13863.8
13631.6
13399.5
13167.4
12935.3
12703.1
12471
12238.9
12006.8
11774.6
11542.5
11310.4
11078.2
10846.1
10614
10381.8
10149.7
9917.58
9685.43
9453.28
9221.13
8988.99
8756.84
8524.66
8292.46
8060.25
7828.02
7595.79
7363.52
7131.21
6898.83
6666.34
6433.69
6200.82
5967.64
5734
5499.69
5264.38
5027.61
4788.7
4546.71
4300.29
4047.54
3785.98
3512.98
3226.48
2924
2590.83
2177.25
1636.42
678.978
22080.7
21821.6
21909.1
21860.1
21815.9
21781.9
21682.9
21578.6
21572.1
21605.6
21588.8
21549
21492.2
21417.1
21323.2
21210.8
21080.9
20935
20774.7
20601.8
20417.9
20224.8
20023.8
19816.5
19603.9
19387
19166.6
18943.6
18718.4
18491.5
18263.3
18034.1
17804.2
17573.7
17342.8
17111.5
16880
16648.3
16416.5
16184.6
15952.6
15720.6
15488.6
15256.5
15024.4
14792.3
14560.2
14328
14095.9
13863.8
13631.6
13399.5
13167.4
12935.3
12703.1
12471
12238.9
12006.8
11774.6
11542.5
11310.4
11078.2
10846.1
10614
10381.8
10149.7
9917.58
9685.43
9453.28
9221.13
8988.99
8756.84
8524.67
8292.47
8060.26
7828.05
7595.83
7363.58
7131.3
6898.96
6666.54
6433.99
6201.28
5968.33
5735.01
5501.17
5266.54
5030.73
4793.19
4553.09
4309.26
4060.02
3803.16
3536.35
3257.45
2962.46
2636.27
2255.94
1873.19
856.809
21963.7
21740
21823.7
21777
21753.8
21717.7
21608.5
21506.6
21504.3
21546.2
21536.6
21503.2
21452.2
21382.4
21293.2
21185.1
21059.1
20916.6
20759.4
20589.1
20407.5
20216.3
20017
19811
19599.5
19383.6
19164
18941.5
18716.8
18490.3
18262.4
18033.4
17803.7
17573.3
17342.5
17111.3
16879.8
16648.2
16416.4
16184.6
15952.6
15720.6
15488.5
15256.5
15024.4
14792.3
14560.2
14328
14095.9
13863.8
13631.6
13399.5
13167.4
12935.3
12703.1
12471
12238.9
12006.8
11774.6
11542.5
11310.4
11078.2
10846.1
10614
10381.8
10149.7
9917.57
9685.43
9453.28
9221.13
8988.99
8756.84
8524.67
8292.48
8060.28
7828.07
7595.86
7363.62
7131.37
6899.06
6666.7
6434.24
6201.65
5968.87
5735.82
5502.36
5268.28
5033.25
4796.81
4558.24
4316.54
4070.18
3817.22
3555.61
3283.15
2994.76
2677.22
2337.63
2123.97
1049.74
21859.3
21672
21748.3
21703.4
21704
21655.7
21534.9
21448.7
21450.8
21495.5
21491.8
21463.7
21417.7
21352.3
21267.2
21162.8
21040.1
20900.6
20746
20578
20398.4
20208.9
20011
19806.2
19595.7
19380.5
19161.6
18939.7
18715.3
18489.2
18261.5
18032.8
17803.2
17573
17342.2
17111.1
16879.7
16648.1
16416.4
16184.5
15952.6
15720.6
15488.5
15256.4
15024.4
14792.3
14560.1
14328
14095.9
13863.8
13631.6
13399.5
13167.4
12935.3
12703.1
12471
12238.9
12006.8
11774.6
11542.5
11310.4
11078.2
10846.1
10614
10381.8
10149.7
9917.57
9685.43
9453.28
9221.13
8988.99
8756.84
8524.67
8292.48
8060.29
7828.09
7595.88
7363.66
7131.41
6899.14
6666.81
6434.41
6201.91
5969.27
5736.41
5503.22
5269.54
5035.08
4799.44
4562.02
4321.88
4077.69
3827.7
3570.11
3302.7
3019.8
2712.06
2416.49
2359.66
1234.88
21773.5
21620.8
21686.9
21645.3
21672.7
21607.6
21468.3
21400.8
21409.9
21456
21456.7
21432.8
21390.4
21328.5
21246.6
21145
21024.9
20887.7
20735.1
20568.9
20390.9
20202.8
20006.1
19802.2
19592.5
19378
19159.6
18938.1
18714.2
18488.2
18260.8
18032.3
17802.8
17572.7
17342
17110.9
16879.6
16648
16416.3
16184.5
15952.5
15720.5
15488.5
15256.4
15024.4
14792.3
14560.1
14328
14095.9
13863.8
13631.6
13399.5
13167.4
12935.3
12703.1
12471
12238.9
12006.8
11774.6
11542.5
11310.4
11078.2
10846.1
10614
10381.8
10149.7
9917.57
9685.43
9453.28
9221.13
8988.99
8756.83
8524.67
8292.49
8060.3
7828.1
7595.89
7363.68
7131.45
6899.18
6666.88
6434.52
6202.08
5969.52
5736.79
5503.78
5270.35
5036.28
4801.18
4564.52
4325.45
4082.75
3834.85
3580.13
3316.41
3037.99
2740.68
2486.35
2549.33
1382.1
21711.1
21586.2
21642.8
21608.4
21659.5
21575.8
21414.6
21365
21382
21428.7
21432.5
21411.3
21371.5
21311.9
21232
21132.4
21014.1
20878.5
20727.4
20562.5
20385.5
20198.4
20002.5
19799.3
19590.2
19376.2
19158.2
18937
18713.3
18487.6
18260.3
18031.9
17802.5
17572.4
17341.8
17110.8
16879.5
16647.9
16416.2
16184.4
15952.5
15720.5
15488.5
15256.4
15024.3
14792.3
14560.1
14328
14095.9
13863.8
13631.6
13399.5
13167.4
12935.3
12703.1
12471
12238.9
12006.8
11774.6
11542.5
11310.4
11078.2
10846.1
10614
10381.8
10149.7
9917.57
9685.43
9453.28
9221.13
8988.98
8756.83
8524.67
8292.49
8060.3
7828.1
7595.9
7363.69
7131.46
6899.21
6666.92
6434.58
6202.17
5969.65
5736.98
5504.08
5270.79
5036.93
4802.13
4565.91
4327.46
4085.66
3839.05
3586.17
3324.85
3049.99
2763.09
2542.48
2673.88
1471.05
21674.3
21566.8
21617.4
21593.3
21652.9
21553.8
21384.1
21350.4
21369.7
21414.1
21419.3
21399.6
21361
21302.5
21223.8
21125.3
21007.9
20873.2
20722.9
20558.6
20382.4
20195.7
20000.3
19797.6
19588.8
19375
19157.3
18936.3
18712.7
18487.1
18260
18031.6
17802.3
17572.3
17341.7
17110.7
16879.4
16647.9
16416.2
16184.4
15952.5
15720.5
15488.5
15256.4
15024.3
14792.2
14560.1
14328
14095.9
13863.8
13631.6
13399.5
13167.4
12935.3
12703.1
12471
12238.9
12006.8
11774.6
11542.5
11310.4
11078.2
10846.1
10614
10381.8
10149.7
9917.57
9685.43
9453.28
9221.13
8988.98
8756.83
8524.67
8292.49
8060.3
7828.1
7595.9
7363.69
7131.46
6899.21
6666.93
6434.59
6202.19
5969.69
5737.03
5504.16
5270.92
5037.12
4802.44
4566.37
4328.17
4086.74
3840.73
3588.73
3328.65
3056.4
2779.18
2582.35
2728.47
1495.81
21662.9
21565.3
21610.4
21594.6
21652.9
21545.1
21375.7
21351.2
21370.1
21410.8
21416.4