/*--------------------------------*- C++ -*----------------------------------*\
| =========                 |                                                 |
| \\      /  F ield         | foam-extend: Open Source CFD                    |
|  \\    /   O peration     | Version:     5.0                                |
|   \\  /    A nd           | Web:         http://www.foam-extend.org         |
|    \\/     M anipulation  |                                                 |
\*---------------------------------------------------------------------------*/
FoamFile
{
    version     2.0;
    format      ascii;
    class       surfaceScalarField;
    location    "0.04";
    object      phi;
}
// * * * * * * * * * * * * * * * * * * * * * * * * * * * * * * * * * * * * * //

dimensions      [0 3 -1 0 0 0 0];

internalField   nonuniform List<scalar> 
7860
(
0.0109949
-0.00599494
0.0158891
-0.00489416
0.0233083
-0.00741917
0.0302721
-0.00696387
0.0360956
-0.00582346
0.0414474
-0.00535181
0.0466698
-0.00522246
0.0517641
-0.00509431
0.0566729
-0.00490875
0.0609229
-0.00425001
0.0643066
-0.00338375
0.0672979
-0.00299129
0.0702779
-0.00298006
0.0731888
-0.00291087
0.0758198
-0.00263099
0.0781607
-0.00234091
0.080225
-0.00206427
0.0820555
-0.00183058
0.0835864
-0.00153083
0.0848582
-0.00127178
0.0859014
-0.00104324
0.0867296
-0.000828203
0.0874572
-0.000727615
0.0880589
-0.000601702
0.0885136
-0.000454702
0.0888678
-0.000354205
0.0891605
-0.000292627
0.0893873
-0.000226844
0.0895681
-0.000180785
0.0897139
-0.000145764
0.0898275
-0.000113667
0.0899143
-8.67661e-05
0.0899738
-5.94403e-05
0.0900159
-4.20928e-05
0.0900492
-3.33423e-05
0.0900738
-2.45863e-05
0.0900938
-2.00267e-05
0.0901101
-1.63167e-05
0.090123
-1.28187e-05
0.0901339
-1.09816e-05
0.0901453
-1.1395e-05
0.0901508
-5.48457e-06
0.0901518
-9.94224e-07
0.0901572
-5.39677e-06
0.0901589
-1.6517e-06
0.0901534
5.50027e-06
0.0901487
4.73827e-06
0.0901475
1.13767e-06
0.0901483
-7.47448e-07
0.0901486
-2.98795e-07
0.0901473
1.22692e-06
0.0901476
-2.42858e-07
0.09015
-2.42091e-06
0.0901523
-2.27744e-06
0.0901561
-3.77099e-06
0.0901616
-5.51083e-06
0.0901606
1.00685e-06
0.0901544
6.15729e-06
0.0901519
2.48817e-06
0.0901511
8.19035e-07
0.0901509
2.01487e-07
0.0901512
-2.94791e-07
0.0901523
-1.10845e-06
0.0901554
-3.06903e-06
0.0901606
-5.19436e-06
0.0901597
9.07736e-07
0.0901536
6.14434e-06
0.0901509
2.70828e-06
0.0901501
7.30634e-07
0.09015
1.50781e-07
0.0901511
-1.09465e-06
0.0901569
-5.81482e-06
0.0901605
-3.63371e-06
0.0901538
6.69984e-06
0.0901454
8.48179e-06
0.0901396
5.73891e-06
0.090134
5.6285e-06
0.0901264
7.58396e-06
0.0901172
9.27846e-06
0.0901073
9.87007e-06
0.0900921
1.51981e-05
0.0900621
2.99787e-05
0.0900152
4.69064e-05
0.0899512
6.40869e-05
0.0898708
8.03076e-05
0.0897627
0.000108143
0.0895986
0.000164138
0.0893691
0.000229519
0.0890789
0.000290195
0.0886486
0.000430313
0.0880577
0.000590865
0.0872312
0.00082652
0.0860252
0.00120597
0.0843505
0.00167474
0.0822155
0.002135
0.0795157
0.00269976
0.0761049
0.00341081
0.0749995
0.00110546
0.0964436
-0.0214442
-0.0214825
0.0279265
-0.0289215
0.046823
-0.0237906
0.0668873
-0.0274836
0.0859934
-0.0260699
0.103011
-0.0228409
0.118587
-0.0209279
0.133232
-0.0198672
0.147113
-0.0189752
0.160064
-0.0178602
0.171315
-0.0155008
0.180771
-0.01284
0.189279
-0.0114992
0.197272
-0.0109734
0.204602
-0.0102402
0.211197
-0.00922667
0.217084
-0.00822718
0.222171
-0.00715199
0.226544
-0.00620301
0.230214
-0.00520099
0.233268
-0.00432581
0.235764
-0.00353942
0.237776
-0.00283974
0.23947
-0.00242152
0.240844
-0.00197603
0.241901
-0.00151174
0.242734
-0.00118754
0.243408
-0.000966348
0.243928
-0.000747285
0.244337
-0.00058963
0.244664
-0.000472659
0.244919
-0.000368556
0.245113
-0.000280973
0.245249
-0.000195582
0.245346
-0.000138799
0.24542
-0.000107646
0.245477
-8.06055e-05
0.245522
-6.50238e-05
0.245558
-5.24384e-05
0.245586
-4.11526e-05
0.24561
-3.46785e-05
0.245633
-3.45077e-05
0.245646
-1.83156e-05
0.24565
-4.94593e-06
0.245659
-1.49234e-05
0.245662
-4.54242e-06
0.245652
1.52289e-05
0.245643
1.39312e-05
0.24564
4.07456e-06
0.245641
-1.44355e-06
0.245641
-3.14237e-07
0.245639
3.04813e-06
0.24564
-1.6013e-06
0.245646
-7.59418e-06
0.245651
-7.28934e-06
0.245657
-1.05735e-05
0.245667
-1.47989e-05
0.245666
2.08604e-06
0.245656
1.62654e-05
0.24565
7.72242e-06
0.245648
3.05181e-06
0.245648
5.94293e-07
0.245649
-1.22815e-06
0.245651
-3.62151e-06
0.245656
-8.32607e-06
0.245665
-1.36629e-05
0.245664
2.10303e-06
0.245653
1.64747e-05
0.245648
8.44175e-06
0.245645
3.05876e-06
0.245645
6.71685e-07
0.245647
-3.25767e-06
0.245657
-1.61716e-05
0.245663
-9.42064e-06
0.245651
1.91539e-05
0.245634
2.54289e-05
0.24562
1.95276e-05
0.245606
1.97367e-05
0.245587
2.61412e-05
0.245563
3.33186e-05
0.245533
3.98971e-05
0.245487
6.12963e-05
0.24541
0.000107089
0.245292
0.000164738
0.245123
0.000233398
0.2449
0.000303266
0.244598
0.00041041
0.244156
0.000606296
0.243514
0.00087139
0.242645
0.00115898
0.241425
0.00164997
0.239748
0.00226832
0.237387
0.00318766
0.233981
0.0046118
0.22948
0.00617556
0.223741
0.00787398
0.21673
0.00971096
0.209102
0.0110393
0.204645
0.0055621
0.214183
-0.0309819
-0.0316665
0.0405424
-0.0644639
0.0721238
-0.055372
0.102505
-0.057865
0.131138
-0.0547026
0.157208
-0.0489113
0.181115
-0.0448347
0.203265
-0.0420177
0.223714
-0.0394238
0.242286
-0.0364326
0.258433
-0.031648
0.272596
-0.0270027
0.285737
-0.02464
0.29765
-0.022887
0.308174
-0.0207641
0.317442
-0.0184942
0.325429
-0.0162143
0.332189
-0.0139121
0.337896
-0.0119098
0.342729
-0.0100342
0.346778
-0.00837492
0.350056
-0.0068178
0.352692
-0.0054754
0.354844
-0.00457325
0.356574
-0.00370607
0.357917
-0.00285458
0.358984
-0.00225471
0.359835
-0.00181731
0.360483
-0.00139576
0.360988
-0.00109372
0.361386
-0.000870918
0.361695
-0.000677712
0.361932
-0.000517838
0.3621
-0.000363551
0.362218
-0.000257287
0.362309
-0.000198491
0.362379
-0.000150688
0.362435
-0.000120277
0.362477
-9.49684e-05
0.36251
-7.41353e-05
0.362537
-6.18678e-05
0.362564
-6.15547e-05
0.36258
-3.36066e-05
0.362584
-9.10647e-06
0.362595
-2.6193e-05
0.362599
-8.06509e-06
0.362588
2.63044e-05
0.362578
2.38146e-05
0.362575
7.10992e-06
0.362575
-2.32614e-06
0.362575
-1.22772e-07
0.362573
5.09344e-06
0.362575
-3.66134e-06
0.362581
-1.37098e-05
0.362587
-1.23603e-05
0.362593
-1.70859e-05
0.362603
-2.52145e-05
0.362603
2.99489e-06
0.362592
2.72546e-05
0.362587
1.26863e-05
0.362584
5.1995e-06
0.362584
9.16128e-07
0.362585
-2.1466e-06
0.362587
-5.84655e-06
0.362592
-1.31486e-05
0.362602
-2.3135e-05
0.362601
3.23537e-06
0.362589
2.79206e-05
0.362583
1.43898e-05
0.36258
5.92864e-06
0.362579
1.89306e-06
0.362581
-4.68472e-06
0.362592
-2.81189e-05
0.362599
-1.59405e-05
0.362584
3.40014e-05
0.362565
4.4655e-05
0.362549
3.57263e-05
0.362531
3.71451e-05
0.362508
4.94102e-05
0.362476
6.50662e-05
0.362432
8.42919e-05
0.362364
0.00012881
0.362262
0.000209708
0.362108
0.000318751
0.361882
0.000459141
0.361565
0.000620223
0.361131
0.000844442
0.360529
0.00120875
0.359636
0.00176435
0.35837
0.00242523
0.356613
0.00340633
0.354195
0.00468677
0.350799
0.0065838
0.345829
0.00958123
0.339574
0.0124307
0.331644
0.0158045
0.321229
0.0201252
0.308303
0.0239655
0.291785
0.0220803
0.267893
-0.00708965
-0.0169791
0.0482199
-0.107684
0.0882513
-0.0954035
0.125622
-0.0952355
0.160637
-0.0897182
0.192853
-0.0811271
0.222487
-0.0744686
0.249741
-0.0692719
0.274534
-0.0642168
0.29662
-0.0585176
0.315554
-0.0505829
0.333177
-0.0446256
0.350288
-0.0417511
0.365227
-0.0378258
0.377951
-0.0334882
0.388835
-0.0293779
0.398069
-0.0254479
0.4058
-0.0216437
0.412089
-0.0181982
0.417569
-0.0155148
0.422362
-0.013168
0.42605
-0.0105056
0.428957
-0.00838177
0.431331
-0.0069472
0.43322
-0.00559565
0.434687
-0.00432179
0.43588
-0.00344757
0.436829
-0.00276628
0.437533
-0.00209961
0.438074
-0.00163447
0.438497
-0.00129423
0.438825
-0.00100514
0.439077
-0.000770474
0.439258
-0.000544784
0.439385
-0.000384098
0.439485
-0.000298625
0.439563
-0.000228075
0.439621
-0.000178082
0.439664
-0.000138671
0.439698
-0.000107605
0.439725
-8.91392e-05
0.439754
-9.0455e-05
0.43977
-4.961e-05
0.439773
-1.19469e-05
0.439786
-3.93445e-05
0.43979
-1.16187e-05
0.439777
3.88573e-05
0.439768
3.26925e-05
0.439766
9.1766e-06
0.439767
-3.43296e-06
0.439767
2.96874e-07
0.439764
7.48923e-06
0.439767
-6.06997e-06
0.439773
-2.03119e-05
0.439778
-1.67343e-05
0.439783
-2.27437e-05
0.439795
-3.68686e-05
0.439794
4.04164e-06
0.439782
3.93989e-05
0.439778
1.67087e-05
0.439776
6.7514e-06
0.439776
1.05262e-06
0.439777
-2.8536e-06
0.439779
-7.43476e-06
0.439783
-1.72586e-05
0.439793
-3.38754e-05
0.439791
5.33537e-06
0.439778
4.12987e-05
0.439773
1.93696e-05
0.439771
8.31086e-06
0.439769
3.28566e-06
0.43977
-5.12533e-06
0.439783
-4.14887e-05
0.43979
-2.28113e-05
0.439772
5.15979e-05
0.439752
6.51828e-05
0.439735
5.2538e-05
0.439716
5.57671e-05
0.439691
7.52768e-05
0.439654
0.00010161
0.439602
0.000136231
0.43952
0.000210671
0.439392
0.000337824
0.439207
0.000503857
0.438945
0.000721356
0.438539
0.00102581
0.437977
0.00140713
0.437284
0.00190116
0.436288
0.0027607
0.434776
0.00393678
0.432574
0.00560844
0.429505
0.00775554
0.425362
0.0107271
0.4198
0.0151438
0.412377
0.0198539
0.402426
0.0257549
0.389176
0.0333755
0.371094
0.0420479
0.342446
0.0507278
0.290902
0.0444546
0.0163242
0.0506577
-0.153342
0.0942233
-0.138969
0.134612
-0.135624
0.172544
-0.127651
0.207735
-0.116318
0.240233
-0.106967
0.270034
-0.0990725
0.296911
-0.0910942
0.320423
-0.0820293
0.341889
-0.0720488
0.362462
-0.0651988
0.381151
-0.0604399
0.397345
-0.0540198
0.411127
-0.0472704
0.422823
-0.0410735
0.432679
-0.035304
0.440916
-0.0298814
0.447758
-0.0250401
0.453478
-0.0212342
0.458245
-0.0179351
0.462047
-0.0143076
0.465058
-0.0113927
0.467505
-0.00939447
0.469424
-0.00751513
0.47095
-0.00584745
0.472216
-0.00471385
0.473189
-0.00373863
0.473904
-0.00281536
0.474448
-0.00217795
0.474869
-0.00171577
0.475197
-0.00133225
0.475451
-0.00102499
0.475639
-0.000732334
0.475772
-0.000517155
0.475878
-0.000405001
0.475958
-0.000308024
0.476015
-0.00023553
0.476057
-0.000180297
0.476089
-0.000139555
0.476117
-0.000117207
0.476148
-0.000121771
0.476163
-6.4552e-05
0.476163
-1.16114e-05
0.476178
-5.44406e-05
0.476181
-1.46262e-05
0.476167
5.35224e-05
0.476159
3.98944e-05
0.476159
9.62832e-06
0.476161
-5.52339e-06
0.47616
9.49137e-07
0.476158
1.02617e-05
0.47616
-8.71798e-06
0.476167
-2.6816e-05
0.47617
-2.03479e-05
0.476175
-2.7434e-05
0.476188
-4.98605e-05
0.476186
6.09194e-06
0.476172
5.34773e-05
0.476169
1.9131e-05
0.476169
7.32775e-06
0.476169
8.9494e-07
0.47617
-3.37958e-06
0.476171
-8.58548e-06
0.476174
-2.08471e-05
0.476187
-4.63661e-05
0.476182
1.00207e-05
0.476165
5.80989e-05
0.476162
2.24166e-05
0.476161
9.42101e-06
0.476161
3.99908e-06
0.47616
-4.87191e-06
0.476175
-5.65902e-05
0.476182
-2.98623e-05
0.47616
7.39147e-05
0.476138
8.77758e-05
0.476121
6.88498e-05
0.476103
7.44723e-05
0.476076
0.000102284
0.476037
0.000140696
0.475982
0.000190685
0.475892
0.000300947
0.475729
0.000500136
0.475503
0.000729865
0.475229
0.000995624
0.474819
0.00143577
0.474172
0.0020548
0.47334
0.00273324
0.472236
0.0038646
0.470592
0.00558006
0.468108
0.00809335
0.46432
0.0115435
0.459371
0.0156758
0.453518
0.0209968
0.445548
0.027824
0.434315
0.0369879
0.419113
0.048577
0.39779
0.0633709
0.362811
0.0857069
0.298377
0.108889
0.057818
0.048313
-0.196655
0.0907827
-0.181439
0.130206
-0.175047
0.167531
-0.164975
0.202524
-0.151311
0.235029
-0.139472
0.264836
-0.128879
0.291575
-0.117834
0.315466
-0.10592
0.338178
-0.0947606
0.359649
-0.0866698
0.37838
-0.0791707
0.394452
-0.0700922
0.408207
-0.0610256
0.419884
-0.0527497
0.429706
-0.0451265
0.437904
-0.0380792
0.444707
-0.0318434
0.450287
-0.0268139
0.454823
-0.0224709
0.458508
-0.0179924
0.461485
-0.0143699
0.463853
-0.0117625
0.465647
-0.00930941
0.467155
-0.00735539
0.468468
-0.00602699
0.469405
-0.00467516
0.470087
-0.00349744
0.470598
-0.00268906
0.470988
-0.00210585
0.471299
-0.00164365
0.471564
-0.00128958
0.471768
-0.000936264
0.47189
-0.000638812
0.471988
-0.000503687
0.472064
-0.000383279
0.472118
-0.000290089
0.472157
-0.000219497
0.472186
-0.000168326
0.472211
-0.000142325
0.472244
-0.000154072
0.472256
-7.74151e-05
0.472252
-7.15674e-06
0.472269
-7.17702e-05
0.472271
-1.63268e-05
0.472254
7.03504e-05
0.47225
4.3903e-05
0.472252
7.72711e-06
0.472256
-8.9367e-06
0.472256
2.66206e-07
0.472253
1.33032e-05
0.472254
-1.00132e-05
0.47226
-3.26532e-05
0.472263
-2.28169e-05
0.472266
-3.04151e-05
0.472282
-6.5806e-05
0.472279
9.34017e-06
0.472261
7.14107e-05
0.47226
1.92717e-05
0.472261
6.63598e-06
0.472262
4.13289e-07
0.472262
-3.67268e-06
0.472263
-9.28446e-06
0.472266
-2.37547e-05
0.47228
-6.11459e-05
0.472274
1.59733e-05
0.472255
7.76686e-05
0.472253
2.3863e-05
0.472252
1.07403e-05
0.472252
4.50067e-06
0.472251
-4.29234e-06
0.472267
-7.30046e-05
0.472274
-3.63154e-05
0.472249
9.86336e-05
0.472228
0.000109445
0.47221
8.65478e-05
0.472189
9.53757e-05
0.472162
0.000129093
0.472123
0.000179697
0.472069
0.000244664
0.47198
0.000389659
0.471817
0.000663325
0.471576
0.0009715
0.47127
0.00130098
0.470842
0.00186407
0.470194
0.00270282
0.469211
0.00371581
0.467966
0.00511015
0.466268
0.00727822
0.463719
0.0106416
0.460082
0.0151807
0.455218
0.0205405
0.448864
0.0273502
0.440118
0.03657
0.428156
0.0489505
0.412132
0.0646005
0.390237
0.0852664
0.356028
0.119916
0.293914
0.171002
0.0976456
0.042185
-0.23384
0.0797311
-0.218985
0.114763
-0.210079
0.14836
-0.198573
0.180342
-0.183294
0.21029
-0.16942
0.237788
-0.156377
0.261823
-0.141869
0.284042
-0.128139
0.306882
-0.1176
0.327908
-0.107696
0.345371
-0.0966339
0.360276
-0.0849975
0.373057
-0.0738059
0.383928
-0.063621
0.393071
-0.0542699
0.400688
-0.0456955
0.406974
-0.0381297
0.412059
-0.031899
0.416053
-0.0264649
0.419427
-0.0213664
0.422288
-0.0172312
0.42441
-0.0138845
0.426104
-0.0110032
0.427561
-0.0088121
0.428702
-0.00716861
0.429531
-0.00550369
0.430135
-0.00410124
0.430606
-0.00316002
0.430948
-0.00244828
0.431218
-0.00191351
0.431472
-0.00154374
0.43165
-0.00111376
0.431752
-0.000741204
0.431839
-0.000590629
0.431903
-0.000447041
0.43195
-0.000337198
0.431982
-0.000251509
0.432005
-0.000191546
0.432027
-0.000164203
0.432059
-0.0001858
0.432068
-8.71368e-05
0.43206
1.70187e-06
0.432079
-9.1172e-05
0.432078
-1.58078e-05
0.432062
8.64005e-05
0.432064
4.19783e-05
0.432068
4.51817e-06
0.432072
-1.35882e-05
0.432074
-1.69159e-06
0.432071
1.60363e-05
0.432071
-1.00146e-05
0.432076
-3.68649e-05
0.432076
-2.35267e-05
0.432078
-3.23554e-05
0.432096
-8.32069e-05
0.43209
1.52485e-05
0.43207
9.15149e-05
0.432073
1.64614e-05
0.432075
4.64162e-06
0.432075
-2.52697e-07
0.432075
-3.52929e-06
0.432075
-9.25138e-06
0.432077
-2.52371e-05
0.432093
-7.73664e-05
0.432086
2.28178e-05
0.432065
9.87733e-05
0.432066
2.28688e-05
0.432065
1.13906e-05
0.432065
4.8154e-06
0.432063
-2.44093e-06
0.432079
-8.87506e-05
0.432083
-4.07735e-05
0.432057
0.000124485
0.432039
0.000127731
0.432025
0.000101142
0.432003
0.000116882
0.431975
0.000156898
0.431937
0.000217745
0.431886
0.000296142
0.431803
0.000472307
0.431649
0.000817123
0.431421
0.00120031
0.431088
0.00163335
0.430629
0.00232306
0.430047
0.00328515
0.429163
0.00459941
0.427807
0.00646632
0.425866
0.00921974
0.423448
0.0130591
0.420226
0.0184028
0.415603
0.0251635
0.409236
0.0337168
0.400403
0.0454035
0.388457
0.0608966
0.372774
0.0802836
0.352555
0.105485
0.324682
0.147789
0.277314
0.218371
0.12757
0.0335136
-0.262353
0.0633377
-0.248809
0.091348
-0.238089
0.118728
-0.225952
0.14541
-0.209976
0.170677
-0.194688
0.194071
-0.17977
0.215608
-0.163407
0.236
-0.148531
0.255516
-0.137116
0.273071
-0.125251
0.288041
-0.111605
0.300856
-0.0978119
0.31187
-0.0848205
0.321248
-0.0729985
0.329129
-0.062151
0.33568
-0.0522466
0.341068
-0.0435182
0.34538
-0.0362107
0.348621
-0.0297063
0.351519
-0.0242643
0.35409
-0.0198022
0.355871
-0.0156649
0.357327
-0.0124599
0.358547
-0.0100314
0.35944
-0.00806155
0.360077
-0.00614079
0.360565
-0.00458941
0.360993
-0.00358842
0.361309
-0.00276393
0.36154
-0.00214456
0.361734
-0.00173771
0.361863
-0.00124235
0.361942
-0.000820182
0.362014
-0.00066315
0.362067
-0.000499544
0.362104
-0.000374911
0.36213
-0.000277442
0.362148
-0.000209651
0.362162
-0.000177243
0.362185
-0.00020964
0.362191
-9.25205e-05
0.36218
1.2597e-05
0.362199
-0.000109903
0.3622
-1.68892e-05
0.36219
9.64408e-05
0.362197
3.47428e-05
0.362202
-1.63257e-07
0.362206
-1.84865e-05
0.36221
-4.91911e-06
0.362209
1.68746e-05
0.362207
-8.48504e-06
0.362208
-3.76533e-05
0.362207
-2.22525e-05
0.362205
-3.0706e-05
0.362219
-9.67123e-05
0.362212
2.17338e-05
0.362195
0.000108306
0.362202
1.04043e-05
0.362205
1.51057e-06
0.362205
-8.88132e-07
0.362205
-2.74474e-06
0.362203
-7.96092e-06
0.362202
-2.37634e-05
0.362215
-9.06432e-05
0.362209
2.93541e-05
0.362191
0.000116095
0.362196
1.84243e-05
0.362197
9.88845e-06
0.362197
4.67795e-06
0.362193
2.11878e-06
0.362202
-9.75638e-05
0.362201
-4.01319e-05
0.362179
0.00014626
0.362168
0.000139026
0.362158
0.000111309
0.362139
0.000135801
0.362112
0.000184064
0.362074
0.000255847
0.362025
0.000345163
0.36195
0.00054649
0.361816
0.000951946
0.361621
0.00139474
0.36135
0.00190445
0.360965
0.00270857
0.36042
0.00382981
0.359595
0.00542486
0.35835
0.00771133
0.35655
0.0110195
0.354279
0.0153295
0.3514
0.0212821
0.347292
0.0292718
0.341393
0.0396159
0.333125
0.0536708
0.321955
0.072067
0.307501
0.0947376
0.290039
0.122947
0.270647
0.167182
0.245135
0.243882
0.142023
0.0235169
-0.28087
0.0439147
-0.269207
0.0631873
-0.257362
0.0826211
-0.245386
0.102334
-0.229689
0.12131
-0.213663
0.138763
-0.197223
0.155873
-0.180517
0.172794
-0.165452
0.188124
-0.152445
0.201665
-0.138792
0.213288
-0.123227
0.22329
-0.107814
0.231929
-0.0934593
0.239257
-0.080327
0.245399
-0.0682924
0.250491
-0.0573392
0.254671
-0.0476982
0.258011
-0.03955
0.260654
-0.0323491
0.262877
-0.0264877
0.264682
-0.0216074
0.266053
-0.0170361
0.267145
-0.013551
0.267993
-0.0108804
0.268597
-0.00866556
0.269064
-0.00660714
0.269439
-0.00496484
0.269753
-0.00390176
0.270005
-0.00301636
0.270173
-0.00231298
0.270297
-0.00186167
0.270383
-0.00132759
0.270446
-0.00088344
0.270503
-0.000720492
0.270545
-0.000541032
0.270572
-0.000401651
0.270589
-0.00029462
0.2706
-0.000221318
0.270603
-0.000180305
0.270609
-0.000214789
0.270609
-9.2909e-05
0.270605
1.6823e-05
0.270612
-0.000117288
0.270615
-1.9818e-05
0.270624
8.73678e-05
0.27064
1.85345e-05
0.270646
-6.16239e-06
0.27065
-2.19385e-05
0.270654
-9.26135e-06
0.270658
1.29469e-05
0.270656
-6.14423e-06
0.27065
-3.1823e-05
0.270645
-1.70851e-05
0.270637
-2.29857e-05
0.270635
-9.46962e-05
0.270632
2.43787e-05
0.270632
0.000108801
0.27064
2.85108e-06
0.270643
-2.26404e-06
0.270644
-1.3624e-06
0.270642
-1.29384e-06
0.270639
-4.87157e-06
0.270633
-1.71158e-05
0.270631
-8.91036e-05
0.270629
3.15495e-05
0.270628
0.000116642
0.270635
1.19397e-05
0.270637
7.25491e-06
0.270637
4.72079e-06
0.270631
8.27902e-06
0.270621
-8.69786e-05
0.270609
-2.8747e-05
0.270605
0.000150941
0.270606
0.000137258
0.270602
0.000115638
0.270588
0.000149822
0.270564
0.000208647
0.270524
0.000295084
0.270472
0.000397711
0.270402
0.000615977
0.270301
0.00105294
0.270162
0.00153432
0.269956
0.00210998
0.269651
0.00301408
0.269198
0.00428287
0.268506
0.00611631
0.267452
0.0087653
0.266069
0.0124031
0.264263
0.0171355
0.261814
0.0237303
0.258354
0.0327319
0.253321
0.044649
0.24621
0.0607818
0.236518
0.0817589
0.223933
0.107323
0.209275
0.137604
0.19687
0.179587
0.192632
0.24812
0.140042
0.013176
-0.289046
0.0234109
-0.279442
0.033184
-0.267135
0.0437487
-0.255951
0.0554477
-0.241388
0.0671234
-0.225339
0.0784303
-0.20853
0.0898263
-0.191913
0.101157
-0.176783
0.111488
-0.162777
0.120427
-0.147731
0.1281
-0.1309
0.134811
-0.114525
0.140628
-0.0992766
0.145495
-0.0851936
0.149543
-0.0723405
0.152895
-0.0606915
0.155645
-0.050448
0.15782
-0.0417255
0.159576
-0.0341051
0.161002
-0.0279134
0.162079
-0.0226847
0.162931
-0.0178872
0.1636
-0.0142205
0.164094
-0.0113738
0.164417
-0.00898896
0.164696
-0.00688654
0.164948
-0.00521693
0.165133
-0.00408594
0.165282
-0.00316556
0.165372
-0.00240296
0.165401
-0.00189097
0.165454
-0.00138017
0.165528
-0.000957357
0.165563
-0.000755699
0.165589
-0.000566873
0.165603
-0.000416357
0.165612
-0.000302896
0.165614
-0.000223454
0.165604
-0.000170737
0.165568
-0.000178594
0.165563
-8.80252e-05
0.165587
-7.07454e-06
0.165561
-9.09333e-05
0.165567
-2.61031e-05
0.165618
3.67752e-05
0.165644
-7.88953e-06
0.165652
-1.42769e-05
0.165652
-2.19069e-05
0.165657
-1.39374e-05
0.165669
1.09043e-06
0.165666
-3.73882e-06
0.165651
-1.61848e-05
0.165641
-7.2359e-06
0.165625
-7.52572e-06
0.165585
-5.41408e-05
0.165592
1.71528e-05
0.165632
6.84334e-05
0.165638
-2.55397e-06
0.165641
-5.40245e-06
0.165641
-1.51467e-06
0.165639
6.99427e-07
0.165634
5.63548e-07
0.16562
-3.53485e-06
0.165581
-4.95265e-05
0.165589
2.35317e-05
0.165629
7.58288e-05
0.165635
6.79803e-06
0.165637
4.82355e-06
0.165635
6.30538e-06
0.165629
1.45117e-05
0.165577
-3.42812e-05
0.165544
4.05774e-06
0.16558
0.000114269
0.165606
0.000111894
0.165608
0.000113499
0.165599
0.000159063
0.165579
0.000228798
0.165543
0.000331011
0.165479
0.000460944
0.165402
0.000692943
0.165352
0.00110378
0.165289
0.00159674
0.165156
0.00224281
0.164947
0.00322376
0.164624
0.00460517
0.164123
0.0066173
0.163413
0.00947563
0.162453
0.0133634
0.161157
0.0184311
0.159406
0.025482
0.156853
0.0352842
0.153062
0.04844
0.147622
0.0662223
0.140051
0.08933
0.129933
0.117441
0.117912
0.149625
0.109064
0.188435
0.116793
0.240391
0.127925
0.0031952
-0.287241
0.00340395
-0.279651
0.00368838
-0.267419
0.00517917
-0.257442
0.0083942
-0.244603
0.0122726
-0.229217
0.0165624
-0.21282
0.0214121
-0.196763
0.0265779
-0.181949
0.031367
-0.167566
0.0354101
-0.151774
0.0388393
-0.134329
0.0418257
-0.117511
0.0443937
-0.101845
0.046491
-0.0872909
0.0481864
-0.0740358
0.0496057
-0.0621109
0.050775
-0.0516173
0.0516318
-0.0425824
0.0523313
-0.0348045
0.0528707
-0.0284529
0.0532082
-0.0230221
0.0534921
-0.0181711
0.05371
-0.0144384
0.0538405
-0.0115043
0.0538357
-0.00898416
0.0539125
-0.0069633
0.0540699
-0.00537432
0.0541208
-0.00413687
0.0541548
-0.00319957
0.0541572
-0.00240538
0.0540522
-0.00178588
0.0540708
-0.00139884
0.0541944
-0.00108091
0.0542062
-0.000767534
0.0542121
-0.000572741
0.0542133
-0.000417556
0.0542118
-0.000301379
0.0542055
-0.00021718
0.0541857
-0.00015091
0.0540634
-5.63235e-05
0.0540534
-7.79485e-05
0.0541506
-0.000104345
0.0540528
6.89641e-06
0.0540631
-3.6413e-05
0.0541859
-8.59965e-05
0.0542202
-4.22008e-05
0.0542346
-2.86283e-05
0.0542303
-1.76576e-05
0.0542339
-1.74815e-05
0.0542534
-1.83988e-05
0.0542517
-2.09239e-06
0.0542271
8.48037e-06
0.0542135
6.38626e-06
0.0541895
1.64178e-05
0.0540738
6.1561e-05
0.0540943
-3.28309e-06
0.0542135
-5.08217e-05
0.0542144
-3.38796e-06
0.0542148
-5.85311e-06
0.0542152
-1.94043e-06
0.0542137
2.21461e-06
0.0542058
8.52023e-06
0.0541841
1.81995e-05
0.0540696
6.49212e-05
0.0540906
2.51818e-06
0.0542102
-4.37579e-05
0.0542125
4.49372e-06
0.0542139
3.43016e-06
0.05421
1.02396e-05
0.0542027
2.18681e-05
0.0540723
9.60907e-05
0.0539969
7.9474e-05
0.0541128
-1.63398e-06
0.0541855
3.91557e-05
0.0541933
0.000105777
0.0541886
0.000163749
0.0541746
0.000242791
0.0541451
0.000360541
0.0540454
0.00056065
0.0539331
0.000805239
0.0539668
0.00107005
0.0540161
0.00154748
0.053958
0.00230093
0.0538543
0.00332741
0.0536878
0.00477169
0.0534361
0.00686903
0.0530847
0.00982703
0.0526148
0.0138333
0.0519374
0.0191086
0.0509683
0.0264511
0.0495074
0.0367451
0.0472228
0.0507246
0.0438194
0.0696257
0.0388686
0.0942808
0.0318199
0.124489
0.0229107
0.158535
0.0163459
0.195
0.0259815
0.230755
0.114774
-0.00596962
-0.276272
-0.0151035
-0.270517
-0.0236564
-0.258867
-0.0308149
-0.250283
-0.0359916
-0.239426
-0.0399414
-0.225268
-0.0428935
-0.209868
-0.0448403
-0.194816
-0.0460501
-0.180739
-0.0470095
-0.166606
-0.048051
-0.150733
-0.0490447
-0.133336
-0.0499208
-0.116635
-0.0507411
-0.101024
-0.0515185
-0.0865134
-0.0522234
-0.0733309
-0.052785
-0.0615493
-0.0533018
-0.0511005
-0.053848
-0.0420362
-0.0542717
-0.0343809
-0.0546466
-0.028078
-0.0550196
-0.0226491
-0.0552947
-0.017896
-0.0555414
-0.0141917
-0.0557667
-0.011279
-0.0559704
-0.00878044
-0.0561054
-0.00682827
-0.0561699
-0.0053099
-0.0562511
-0.00405565
-0.0563357
-0.00311491
-0.056417
-0.00232413
-0.0565067
-0.00169619
-0.056526
-0.00137948
-0.0565042
-0.00110276
-0.056518
-0.000753722
-0.0565315
-0.000559181
-0.0565441
-0.00040499
-0.0565552
-0.000290229
-0.0565683
-0.000204074
-0.0565895
-0.000129719
-0.0566348
-1.0994e-05
-0.0566445
-6.8289e-05
-0.056626
-0.00012288
-0.0566555
3.64376e-05
-0.0566421
-4.97849e-05
-0.0565889
-0.000139242
-0.056565
-6.60138e-05
-0.0565579
-3.57436e-05
-0.05656
-1.56248e-05
-0.0565579
-1.95256e-05
-0.0565459
-3.04023e-05
-0.0565468
-1.14245e-06
-0.0565644
2.60406e-05
-0.0565777
1.97071e-05
-0.0565983
3.69586e-05
-0.0566396
0.000102914
-0.0566214
-2.14357e-05
-0.0565742
-9.81112e-05
-0.0565723
-5.23427e-06
-0.0565723
-5.83703e-06
-0.0565734
-8.9301e-07
-0.0565768
5.6719e-06
-0.0565851
1.68365e-05
-0.0566035
3.65782e-05
-0.0566434
0.000104838
-0.0566244
-1.64781e-05
-0.0565768
-9.13753e-05
-0.0565746
2.34457e-06
-0.0565755
4.3138e-06
-0.056581
1.57853e-05
-0.0565904
3.12523e-05
-0.0566387
0.000144407
-0.0566612
0.000101929
-0.0566206
-4.22349e-05
-0.0565939
1.24359e-05
-0.0565859
9.78331e-05
-0.0565862
0.000164074
-0.0565924
0.000248938
-0.0566065
0.00037474
-0.0566408
0.000594913
-0.0566729
0.000837388
-0.0566481
0.0010452
-0.0566056
0.001505
-0.0565906
0.00228598
-0.0565817
0.00331849
-0.0565803
0.00477029
-0.0565697
0.00685842
-0.0565494
0.00980672
-0.0565207
0.0138046
-0.0565298
0.0191177
-0.0566032
0.0265244
-0.0568416
0.0369835
-0.0574589
0.0513419
-0.0585681
0.0707349
-0.0604689
0.0961816
-0.0637586
0.127779
-0.0685451
0.163321
-0.0719817
0.198437
-0.0620692
0.220843
0.102506
-0.0140259
-0.257246
-0.0314258
-0.253117
-0.0478543
-0.242438
-0.0628347
-0.235303
-0.0758053
-0.226456
-0.0872097
-0.213863
-0.0972136
-0.199864
-0.105857
-0.186172
-0.113368
-0.173228
-0.1201
-0.159875
-0.12621
-0.144623
-0.131584
-0.127961
-0.136319
-0.111901
-0.1405
-0.0968437
-0.144139
-0.0828736
-0.147259
-0.0702118
-0.149887
-0.0589209
-0.152098
-0.0488894
-0.153967
-0.0401669
-0.155497
-0.0328512
-0.156779
-0.0267961
-0.157856
-0.0215715
-0.158695
-0.0170577
-0.159376
-0.0135107
-0.15991
-0.0107448
-0.160354
-0.00833596
-0.160724
-0.00645864
-0.160949
-0.00508489
-0.161148
-0.00385698
-0.161365
-0.00289779
-0.161528
-0.00216037
-0.161637
-0.00158792
-0.161702
-0.00131439
-0.161749
-0.00105603
-0.161784
-0.000718028
-0.161815
-0.000528366
-0.161841
-0.000379076
-0.161862
-0.000269564
-0.16188
-0.000185611
-0.1619
-0.000109853
-0.161911
2.81766e-07
-0.16192
-5.94214e-05
-0.161932
-0.000110835
-0.161929
3.30388e-05
-0.161917
-6.11847e-05
-0.161905
-0.000151219
-0.161894
-7.7489e-05
-0.16189
-3.92731e-05
-0.16189
-1.57059e-05
-0.161889
-2.04151e-05
-0.161886
-3.41188e-05
-0.161886
-3.93884e-07
-0.161895
3.48446e-05
-0.161906
3.02296e-05
-0.161919
4.99092e-05
-0.16192
0.000104498
-0.161909
-3.28522e-05
-0.1619
-0.00010683
-0.161898
-7.58533e-06
-0.161899
-4.26189e-06
-0.161901
1.16422e-06
-0.161905
9.6585e-06
-0.161912
2.3538e-05
-0.161923
4.76574e-05
-0.161924
0.000105331
-0.161911
-2.86739e-05
-0.161902
-0.000100401
-0.1619
2.42064e-07
-0.161903
7.38905e-06
-0.161909
2.11583e-05
-0.161917
3.96224e-05
-0.16192
0.000147606
-0.161917
9.86298e-05
-0.161915
-4.46003e-05
-0.161909
7.20369e-06
-0.161903
9.1146e-05
-0.161899
0.000160312
-0.161896
0.00024573
-0.161892
0.000371368
-0.161885
0.000587951
-0.161864
0.000816233
-0.161823
0.00100424
-0.16176
0.00144147
-0.16167
0.00219636
-0.161546
0.00319489
-0.161375
0.00459868
-0.161123
0.00660613
-0.160753
0.00943716
-0.160197
0.0132491
-0.159484
0.0184041
-0.158673
0.0257139
-0.15773
0.0360405
-0.156569
0.0501807
-0.155168
0.0693338
-0.153733
0.0947468
-0.152682
0.126728
-0.15213
0.162769
-0.150069
0.196375
-0.137264
0.208038
0.0902762
-0.0207601
-0.231486
-0.0451225
-0.228754
-0.0682307
-0.21933
-0.0899723
-0.213561
-0.109865
-0.206563
-0.128028
-0.1957
-0.144544
-0.183349
-0.159435
-0.171281
-0.172843
-0.15982
-0.184984
-0.147734
-0.195894
-0.133713
-0.205477
-0.118378
-0.213894
-0.103483
-0.221259
-0.0894791
-0.227614
-0.0765186
-0.233029
-0.064797
-0.237595
-0.0543549
-0.241403
-0.045081
-0.244553
-0.0370168
-0.247133
-0.0302713
-0.249264
-0.0246655
-0.251006
-0.0198295
-0.252372
-0.015692
-0.253454
-0.0124288
-0.25433
-0.00986849
-0.255022
-0.00764363
-0.255562
-0.00591885
-0.25598
-0.00466699
-0.2563
-0.00353704
-0.256562
-0.00263588
-0.256768
-0.00195378
-0.256913
-0.00144355
-0.257026
-0.00120061
-0.25712
-0.000962577
-0.257179
-0.000659324
-0.257225
-0.000482175
-0.257259
-0.000344514
-0.257287
-0.000241804
-0.25731
-0.000162819
-0.257328
-9.1383e-05
-0.257328
-4.43991e-07
-0.257336
-5.12084e-05
-0.257356
-9.0892e-05
-0.257341
1.80167e-05
-0.257334
-6.80606e-05
-0.257342
-0.000142652
-0.25734
-7.94249e-05
-0.257339
-4.03946e-05
-0.257338
-1.67294e-05
-0.257339
-2.01471e-05
-0.257341
-3.21028e-05
-0.257342
6.26326e-07
-0.257344
3.74014e-05
-0.25735
3.65677e-05
-0.257355
5.48887e-05
-0.25734
8.91597e-05
-0.257335
-3.79083e-05
-0.257344
-9.74793e-05
-0.257343
-9.34887e-06
-0.257344
-2.43538e-06
-0.257347
3.66955e-06
-0.257351
1.32801e-05
-0.257355
2.79164e-05
-0.257359
5.15643e-05
-0.257343
8.92895e-05
-0.257337
-3.43396e-05
-0.257346
-9.16004e-05
-0.257345
-1.04974e-06
-0.257348
1.09474e-05
-0.257352
2.54143e-05
-0.257358
4.48095e-05
-0.257341
0.000130978
-0.257327
8.51599e-05
-0.257339
-3.27663e-05
-0.257343
1.05564e-05
-0.257337
8.5127e-05
-0.257329
0.000152301
-0.257318
0.000234838
-0.257301
0.000354621
-0.257262
0.000549166
-0.2572
0.000753757
-0.257131
0.000935125
-0.257027
0.00133815
-0.25686
0.00202898
-0.256618
0.00295312
-0.256271
0.00425198
-0.255769
0.00610345
-0.255046
0.00871474
-0.254113
0.0123162
-0.252907
0.0171973
-0.25123
0.0240371
-0.248938
0.0337489
-0.245892
0.0471345
-0.241927
0.0653693
-0.236971
0.0897905
-0.23112
0.120877
-0.224317
0.155966
-0.215089
0.187148