/*--------------------------------*- C++ -*----------------------------------*\
| =========                 |                                                 |
| \\      /  F ield         | foam-extend: Open Source CFD                    |
|  \\    /   O peration     | Version:     5.0                                |
|   \\  /    A nd           | Web:         http://www.foam-extend.org         |
|    \\/     M anipulation  |                                                 |
\*---------------------------------------------------------------------------*/
FoamFile
{
    version     2.0;
    format      ascii;
    class       volVectorField;
    location    "0.04";
    object      U;
}
// * * * * * * * * * * * * * * * * * * * * * * * * * * * * * * * * * * * * * //

dimensions      [0 1 -1 0 0 0 0];

internalField   nonuniform List<vector> 
4000
(
(1.06237 -0.115518 0)
(2.85089 -0.0827566 0)
(3.89666 -0.15664 0)
(5.36618 -0.150521 0)
(6.67165 -0.122706 0)
(7.77952 -0.11181 0)
(8.82911 -0.112291 0)
(9.85261 -0.113049 0)
(10.869 -0.11234 0)
(11.7904 -0.0965648 0)
(12.5514 -0.0737119 0)
(13.172 -0.0625862 0)
(13.7706 -0.0664953 0)
(14.3582 -0.0683474 0)
(14.9084 -0.0628399 0)
(15.4134 -0.0565285 0)
(15.851 -0.0507997 0)
(16.2417 -0.0455651 0)
(16.5739 -0.0383911 0)
(16.8564 -0.0317214 0)
(17.0836 -0.0263091 0)
(17.2717 -0.020754 0)
(17.4241 -0.01866 0)
(17.5556 -0.0155886 0)
(17.6628 -0.0117776 0)
(17.7419 -0.00899714 0)
(17.8057 -0.00757789 0)
(17.8565 -0.00593272 0)
(17.8975 -0.00477286 0)
(17.9296 -0.00385467 0)
(17.9554 -0.00303811 0)
(17.975 -0.00229001 0)
(17.9897 -0.00158071 0)
(17.9996 -0.00111048 0)
(18.0068 -0.000880523 0)
(18.0125 -0.000645024 0)
(18.0169 -0.000532212 0)
(18.0205 -0.000440763 0)
(18.0234 -0.000352155 0)
(18.0258 -0.000303543 0)
(18.028 -0.000306865 0)
(18.0298 -0.000152254 0)
(18.0303 -4.12504e-05 0)
(18.0309 -0.000137922 0)
(18.0317 -4.50524e-05 0)
(18.0314 0.000143954 0)
(18.0301 0.000135617 0)
(18.0295 3.75412e-05 0)
(18.0296 -1.61943e-05 0)
(18.0297 -1.09375e-05 0)
(18.0296 2.99159e-05 0)
(18.0294 -2.36879e-06 0)
(18.0297 -6.02595e-05 0)
(18.0302 -6.93681e-05 0)
(18.0308 -0.00011314 0)
(18.0318 -0.000148272 0)
(18.0323 2.18381e-05 0)
(18.0316 0.000168185 0)
(18.0306 8.35291e-05 0)
(18.0302 2.68388e-05 0)
(18.0302 7.09563e-06 0)
(18.0302 -9.29169e-06 0)
(18.0303 -3.5977e-05 0)
(18.0307 -9.5916e-05 0)
(18.0316 -0.000140528 0)
(18.0321 2.58467e-05 0)
(18.0314 0.00016447 0)
(18.0304 8.47457e-05 0)
(18.03 2.32391e-05 0)
(18.03 -5.35178e-06 0)
(18.03 -4.09791e-05 0)
(18.0308 -0.000149991 0)
(18.0319 -9.37546e-05 0)
(18.0317 0.000176867 0)
(18.03 0.000236459 0)
(18.0285 0.000163915 0)
(18.0274 0.00015479 0)
(18.0261 0.000205576 0)
(18.0245 0.000241044 0)
(18.0227 0.000251863 0)
(18.0204 0.000379701 0)
(18.016 0.000801679 0)
(18.0087 0.00122001 0)
(17.9977 0.00169947 0)
(17.9835 0.00200935 0)
(17.9654 0.00275268 0)
(17.9389 0.00408946 0)
(17.9016 0.00578229 0)
(17.8499 0.0068405 0)
(17.7804 0.0105305 0)
(17.6816 0.0139195 0)
(17.5453 0.0200743 0)
(17.3485 0.0283066 0)
(17.0563 0.0414763 0)
(16.6851 0.0514721 0)
(16.1747 0.0640396 0)
(15.486 0.0699338 0)
(14.7684 -0.0351926 0)
(17.8466 -0.704118 0)
(21.0263 -0.678818 0)
(2.57309 -0.738057 0)
(7.93399 -0.590802 0)
(11.3493 -0.76092 0)
(15.3093 -0.720557 0)
(18.991 -0.619026 0)
(22.2347 -0.568035 0)
(25.2394 -0.545912 0)
(28.0695 -0.528445 0)
(30.7978 -0.504699 0)
(33.2156 -0.437412 0)
(35.2731 -0.353099 0)
(37.037 -0.313397 0)
(38.7048 -0.305986 0)
(40.2273 -0.292245 0)
(41.6012 -0.265531 0)
(42.8698 -0.238371 0)
(43.9637 -0.208934 0)
(44.9088 -0.183532 0)
(45.6996 -0.153373 0)
(46.3807 -0.127165 0)
(46.9221 -0.10462 0)
(47.3764 -0.0838384 0)
(47.7394 -0.0724948 0)
(48.0442 -0.0595444 0)
(48.2864 -0.0452822 0)
(48.473 -0.0354655 0)
(48.6213 -0.029048 0)
(48.7391 -0.0225369 0)
(48.8311 -0.0178804 0)
(48.9036 -0.0144055 0)
(48.9613 -0.0112439 0)
(49.0056 -0.00858642 0)
(49.0384 -0.00592259 0)
(49.0611 -0.00420055 0)
(49.0775 -0.00327975 0)
(49.0903 -0.00243625 0)
(49.1003 -0.0019843 0)
(49.1083 -0.0016126 0)
(49.1146 -0.00126579 0)
(49.1197 -0.00107275 0)
(49.1244 -0.00109192 0)
(49.1282 -0.000556637 0)
(49.1297 -0.000127573 0)
(49.1309 -0.000495266 0)
(49.1324 -0.000152008 0)
(49.1318 0.000497107 0)
(49.1294 0.000446038 0)
(49.1281 0.000126067 0)
(49.1281 -5.33724e-05 0)
(49.1282 -1.66873e-05 0)
(49.1279 0.000104532 0)
(49.1278 -3.88103e-05 0)
(49.1286 -0.000234549 0)
(49.1296 -0.000223528 0)
(49.1308 -0.000344188 0)
(49.1325 -0.000497876 0)
(49.1335 7.40405e-05 0)
(49.1324 0.000543965 0)
(49.1305 0.000243277 0)
(49.1297 9.47952e-05 0)
(49.1295 2.09769e-05 0)
(49.1296 -3.47118e-05 0)
(49.1299 -0.000111429 0)
(49.1307 -0.000273785 0)
(49.1322 -0.000463377 0)
(49.1331 6.71841e-05 0)
(49.1319 0.000545249 0)
(49.13 0.000264878 0)
(49.1292 9.02108e-05 0)
(49.1289 2.00277e-05 0)
(49.129 -0.00010135 0)
(49.1303 -0.000534095 0)
(49.1325 -0.000325601 0)
(49.1319 0.000611303 0)
(49.1286 0.000797886 0)
(49.1253 0.000581305 0)
(49.1227 0.000574926 0)
(49.1196 0.000762278 0)
(49.1154 0.000948641 0)
(49.1104 0.00106331 0)
(49.1032 0.00163724 0)
(49.0911 0.00302335 0)
(49.0728 0.00470661 0)
(49.0446 0.00659094 0)
(49.0055 0.00832721 0)
(48.9553 0.0111885 0)
(48.8827 0.0169727 0)
(48.781 0.0241959 0)
(48.6297 0.0313348 0)
(48.4265 0.0450154 0)
(48.1468 0.0618045 0)
(47.7577 0.0868503 0)
(47.1992 0.128042 0)
(46.386 0.173225 0)
(45.4094 0.219665 0)
(44.0633 0.270093 0)
(42.4408 0.308617 0)
(40.8516 0.0820607 0)
(44.5687 -1.48818 0)
(41.4818 -1.45952 0)
(3.56051 -2.23864 0)
(11.9551 -1.87607 0)
(17.4944 -2.05077 0)
(23.3935 -1.94378 0)
(28.9595 -1.72044 0)
(33.9501 -1.57612 0)
(38.5342 -1.48701 0)
(42.7859 -1.40842 0)
(46.7259 -1.31416 0)
(50.1763 -1.13756 0)
(53.1559 -0.953601 0)
(55.8853 -0.865723 0)
(58.4407 -0.81641 0)
(60.6413 -0.751309 0)
(62.6161 -0.674212 0)
(64.3539 -0.596073 0)
(65.817 -0.514974 0)
(67.0633 -0.443538 0)
(68.0853 -0.373104 0)
(69.0015 -0.311353 0)
(69.7059 -0.25411 0)
(70.309 -0.204161 0)
(70.7742 -0.172144 0)
(71.1592 -0.140054 0)
(71.4632 -0.107493 0)
(71.7027 -0.0846382 0)
(71.8918 -0.0685786 0)
(72.0392 -0.0529155 0)
(72.1531 -0.0416343 0)
(72.2417 -0.0332674 0)
(72.3118 -0.0259093 0)
(72.3656 -0.0197767 0)
(72.4058 -0.013815 0)
(72.4339 -0.00977774 0)
(72.4536 -0.00755761 0)
(72.4696 -0.0057132 0)
(72.4821 -0.00459391 0)
(72.4916 -0.00366718 0)
(72.499 -0.00287204 0)
(72.505 -0.00240098 0)
(72.5103 -0.0023857 0)
(72.5148 -0.00129508 0)
(72.5166 -0.000356037 0)
(72.5178 -0.00102036 0)
(72.5198 -0.00031257 0)
(72.519 0.00103394 0)
(72.5163 0.00094833 0)
(72.5149 0.000286763 0)
(72.515 -9.16382e-05 0)
(72.5152 -1.16858e-05 0)
(72.5147 0.000200226 0)
(72.5147 -0.000126705 0)
(72.5156 -0.000530574 0)
(72.5168 -0.000498339 0)
(72.518 -0.000697722 0)
(72.5197 -0.000998254 0)
(72.5209 0.000126982 0)
(72.5196 0.00109003 0)
(72.5177 0.000518484 0)
(72.5169 0.000211451 0)
(72.5168 3.85502e-05 0)
(72.5169 -8.75611e-05 0)
(72.5172 -0.000244234 0)
(72.5179 -0.000542165 0)
(72.5194 -0.000918096 0)
(72.5206 0.000126597 0)
(72.5192 0.00110517 0)
(72.5171 0.000577319 0)
(72.5162 0.000224771 0)
(72.5158 5.84656e-05 0)
(72.5157 -0.000204789 0)
(72.5171 -0.00109953 0)
(72.5198 -0.000631027 0)
(72.5189 0.00131345 0)
(72.515 0.00174043 0)
(72.5113 0.00137478 0)
(72.5082 0.00140749 0)
(72.5043 0.00185862 0)
(72.499 0.00240596 0)
(72.492 0.00301599 0)
(72.481 0.00460524 0)
(72.464 0.00768025 0)
(72.4405 0.0117676 0)
(72.403 0.0168871 0)
(72.3508 0.0224185 0)
(72.2762 0.030301 0)
(72.1749 0.0440733 0)
(72.0377 0.0639907 0)
(71.822 0.0865797 0)
(71.5234 0.121767 0)
(71.1249 0.166902 0)
(70.5586 0.235363 0)
(69.7629 0.344732 0)
(68.5613 0.451342 0)
(67.2741 0.570645 0)
(65.3716 0.711278 0)
(62.934 0.808462 0)
(59.9255 0.543177 0)
(60.4233 -1.2258 0)
(47.193 -1.36767 0)
(4.01589 -4.24999 0)
(14.5011 -3.70874 0)
(21.4648 -3.77163 0)
(28.6507 -3.55784 0)
(35.4932 -3.20036 0)
(41.6806 -2.93523 0)
(47.3523 -2.7401 0)
(52.5561 -2.55545 0)
(57.2918 -2.34134 0)
(61.3404 -2.02251 0)
(64.8314 -1.76035 0)
(68.4487 -1.63357 0)
(71.6997 -1.49629 0)
(74.4104 -1.33931 0)
(76.7589 -1.18343 0)
(78.7689 -1.03118 0)
(80.4566 -0.880758 0)
(81.8692 -0.746278 0)
(82.9558 -0.633665 0)
(84.0673 -0.534598 0)
(84.8742 -0.430057 0)
(85.5374 -0.344152 0)
(86.0526 -0.286208 0)
(86.4757 -0.231224 0)
(86.8045 -0.178382 0)
(87.0698 -0.141455 0)
(87.2837 -0.113913 0)
(87.4447 -0.0869798 0)
(87.5677 -0.0679521 0)
(87.6617 -0.0539534 0)
(87.7363 -0.0419158 0)
(87.7931 -0.0320366 0)
(87.8363 -0.022557 0)
(87.8669 -0.0159674 0)
(87.8876 -0.0123616 0)
(87.906 -0.00942629 0)
(87.9192 -0.00743846 0)
(87.9291 -0.0058346 0)
(87.9365 -0.00454123 0)
(87.9426 -0.00376684 0)
(87.948 -0.00377963 0)
(87.9529 -0.00208506 0)
(87.9546 -0.000540348 0)
(87.9558 -0.00161889 0)
(87.9581 -0.000493106 0)
(87.957 0.00161282 0)
(87.9543 0.00142022 0)
(87.9532 0.000419247 0)
(87.9534 -0.000134913 0)
(87.9535 5.48522e-06 0)
(87.953 0.000310901 0)
(87.9529 -0.000245703 0)
(87.954 -0.0008506 0)
(87.9552 -0.000736281 0)
(87.9561 -0.000998025 0)
(87.9579 -0.00153219 0)
(87.9592 0.000168973 0)
(87.9579 0.00164583 0)
(87.9558 0.000744737 0)
(87.9553 0.000307081 0)
(87.9552 5.01129e-05 0)
(87.9553 -0.000129258 0)
(87.9555 -0.000339205 0)
(87.9561 -0.000758697 0)
(87.9576 -0.00140892 0)
(87.9589 0.00020053 0)
(87.9571 0.00170811 0)
(87.9549 0.00085068 0)
(87.9542 0.000358962 0)
(87.9539 0.000127877 0)
(87.9536 -0.000248493 0)
(87.955 -0.00172171 0)
(87.958 -0.000968588 0)
(87.9568 0.0021081 0)
(87.9525 0.00273037 0)
(87.9486 0.00219741 0)
(87.9453 0.00230683 0)
(87.9411 0.00309011 0)
(87.9351 0.00412527 0)
(87.927 0.00544364 0)
(87.9141 0.00835096 0)
(87.8932 0.0134422 0)
(87.8635 0.0202501 0)
(87.8195 0.0291313 0)
(87.7594 0.0405202 0)
(87.6575 0.0553517 0)
(87.5316 0.0764313 0)
(87.3826 0.11144 0)
(87.1384 0.156628 0)
(86.7693 0.221353 0)
(86.2642 0.305463 0)
(85.5456 0.426843 0)
(84.596 0.610231 0)
(83.3187 0.795161 0)
(81.6433 1.02072 0)
(79.3235 1.30766 0)
(76.1664 1.59295 0)
(71.7206 1.70654 0)
(68.907 0.763604 0)
(48.0202 -0.0938956 0)
(3.93642 -6.52135 0)
(15.4589 -5.84733 0)
(22.9758 -5.75984 0)
(30.7164 -5.422 0)
(38.1782 -4.92194 0)
(44.956 -4.52114 0)
(51.1758 -4.19534 0)
(56.8482 -3.87131 0)
(61.9628 -3.49779 0)
(66.1738 -3.04778 0)
(70.5258 -2.72758 0)
(74.4886 -2.54154 0)
(77.9986 -2.28615 0)
(80.9538 -2.012 0)
(83.4882 -1.75607 0)
(85.6353 -1.51484 0)
(87.434 -1.285 0)
(88.9362 -1.079 0)
(90.1581 -0.917781 0)
(91.2315 -0.776964 0)
(92.0596 -0.61999 0)
(92.7501 -0.493801 0)
(93.2821 -0.408381 0)
(93.7161 -0.327347 0)
(94.0446 -0.253961 0)
(94.3351 -0.203926 0)
(94.5536 -0.16255 0)
(94.7177 -0.122928 0)
(94.8434 -0.0953702 0)
(94.9357 -0.0753321 0)
(95.0111 -0.0584599 0)
(95.0672 -0.0448036 0)
(95.1114 -0.0319047 0)
(95.1438 -0.0225577 0)
(95.1655 -0.0175844 0)
(95.1851 -0.0134118 0)
(95.1982 -0.0103592 0)
(95.2079 -0.00799646 0)
(95.2147 -0.0061997 0)
(95.2208 -0.00516704 0)
(95.2268 -0.00529203 0)
(95.2317 -0.0028693 0)
(95.2329 -0.000616312 0)
(95.234 -0.00232317 0)
(95.2365 -0.000658929 0)
(95.235 0.00229893 0)
(95.2323 0.00183685 0)
(95.2316 0.000486685 0)
(95.232 -0.00021196 0)
(95.2323 3.45802e-05 0)
(95.2315 0.000439054 0)
(95.2317 -0.000376416 0)
(95.2326 -0.00118421 0)
(95.2337 -0.000942284 0)
(95.2345 -0.00125958 0)
(95.2364 -0.00214716 0)
(95.2377 0.000242958 0)
(95.236 0.00229962 0)
(95.2339 0.000911953 0)
(95.2337 0.000362023 0)
(95.2338 4.98658e-05 0)
(95.2338 -0.000160797 0)
(95.234 -0.000410143 0)
(95.2344 -0.000955187 0)
(95.2362 -0.00198662 0)
(95.2375 0.000371662 0)
(95.2347 0.00246137 0)
(95.2326 0.00105639 0)
(95.2323 0.000449465 0)
(95.2321 0.000179737 0)
(95.2318 -0.000258495 0)
(95.2334 -0.0024353 0)
(95.2365 -0.00131597 0)
(95.235 0.00311076 0)
(95.2296 0.00381906 0)
(95.2258 0.00303739 0)
(95.2226 0.0032501 0)
(95.2183 0.00442756 0)
(95.2119 0.00604606 0)
(95.2032 0.0081623 0)
(95.1899 0.0127382 0)
(95.1659 0.0208099 0)
(95.1258 0.0306602 0)
(95.0758 0.0427171 0)
(95.0166 0.0611641 0)
(94.9124 0.0860911 0)
(94.7554 0.115036 0)
(94.5804 0.164563 0)
(94.3197 0.236366 0)
(93.9139 0.340908 0)
(93.3343 0.4801 0)
(92.4031 0.657281 0)
(91.3365 0.899819 0)
(90.0675 1.18345 0)
(88.1688 1.55726 0)
(85.5616 2.03223 0)
(81.9212 2.60909 0)
(76.6063 3.37027 0)
(72.0371 3.78141 0)
(47.947 1.82815 0)
(3.37815 -8.78627 0)
(14.9626 -8.03948 0)
(22.1846 -7.78994 0)
(29.727 -7.33405 0)
(37.1474 -6.70413 0)
(43.9117 -6.17108 0)
(50.1396 -5.70769 0)
(55.8077 -5.23055 0)
(60.8718 -4.70288 0)
(65.2643 -4.17048 0)
(69.9547 -3.79935 0)
(73.9533 -3.49484 0)
(77.417 -3.10809 0)
(80.373 -2.71172 0)
(82.9039 -2.34909 0)
(85.0445 -2.01374 0)
(86.8354 -1.70156 0)
(88.3277 -1.42421 0)
(89.5473 -1.20388 0)
(90.5697 -1.01288 0)
(91.3489 -0.809377 0)
(92.0438 -0.645076 0)
(92.5622 -0.530074 0)
(92.9745 -0.421749 0)
(93.2742 -0.330181 0)
(93.5883 -0.269101 0)
(93.8019 -0.210958 0)
(93.955 -0.158255 0)
(94.0795 -0.121929 0)
(94.1598 -0.0957757 0)
(94.2344 -0.074564 0)
(94.2853 -0.0579507 0)
(94.3382 -0.041816 0)
(94.3687 -0.0290015 0)
(94.388 -0.0227799 0)
(94.4065 -0.0173275 0)
(94.419 -0.013183 0)
(94.4282 -0.010035 0)
(94.4345 -0.00773598 0)
(94.4397 -0.00652078 0)
(94.4459 -0.00689798 0)
(94.4504 -0.00357301 0)
(94.4511 -0.000507319 0)
(94.4521 -0.00313553 0)
(94.4545 -0.000767462 0)
(94.4526 0.00310184 0)
(94.4501 0.00212817 0)
(94.4501 0.000454123 0)
(94.4508 -0.000349196 0)
(94.4513 3.79118e-05 0)
(94.4508 0.000586593 0)
(94.4507 -0.000478806 0)
(94.4513 -0.00150029 0)
(94.4524 -0.00109929 0)
(94.4528 -0.00146237 0)
(94.4548 -0.00287891 0)
(94.4564 0.000375899 0)
(94.4541 0.00310667 0)
(94.4517 0.000984911 0)
(94.4521 0.000360345 0)
(94.4523 3.38949e-05 0)
(94.4523 -0.000182265 0)
(94.4524 -0.000459846 0)
(94.4527 -0.00112756 0)
(94.4549 -0.00267129 0)
(94.4559 0.000643692 0)
(94.4529 0.00337894 0)
(94.4505 0.00118116 0)
(94.4506 0.00050946 0)
(94.4501 0.000210842 0)
(94.45 -0.000250603 0)
(94.4519 -0.00324169 0)
(94.4548 -0.00165224 0)
(94.4529 0.0043038 0)
(94.4476 0.00494673 0)
(94.4439 0.00390193 0)
(94.44 0.00424549 0)
(94.4354 0.00579067 0)
(94.4293 0.00801053 0)
(94.4206 0.010919 0)
(94.4076 0.0173199 0)
(94.3834 0.029097 0)
(94.3434 0.0425404 0)
(94.2874 0.0573771 0)
(94.2213 0.0826963 0)
(94.1159 0.119015 0)
(93.9619 0.160922 0)
(93.7228 0.223896 0)
(93.4695 0.321338 0)
(93.0345 0.468932 0)
(92.4571 0.670276 0)
(91.5851 0.905219 0)
(90.4952 1.20785 0)
(89.0486 1.60941 0)
(87.017 2.14756 0)
(84.2599 2.83089 0)
(80.4654 3.72709 0)
(75.0685 5.17904 0)
(70.5522 7.06354 0)
(47.6341 3.91215 0)
(2.46302 -10.8295 0)
(13.2977 -10.0724 0)
(19.521 -9.68273 0)
(26.1972 -9.13644 0)
(32.9918 -8.40541 0)
(39.2049 -7.75683 0)
(44.9535 -7.16168 0)
(50.1783 -6.51676 0)
(54.5935 -5.86988 0)
(58.9624 -5.32331 0)
(63.7483 -4.87506 0)
(67.4754 -4.41111 0)
(70.6829 -3.89144 0)
(73.4326 -3.38286 0)
(75.7866 -2.91933 0)
(77.7799 -2.49341 0)
(79.4456 -2.10158 0)
(80.8295 -1.7555 0)
(81.9528 -1.47353 0)
(82.876 -1.22887 0)
(83.5319 -0.986676 0)
(84.2266 -0.792674 0)
(84.7047 -0.643485 0)
(85.0525 -0.509723 0)
(85.3787 -0.405887 0)
(85.6483 -0.331219 0)
(85.8344 -0.255609 0)
(85.9723 -0.190699 0)
(86.0817 -0.146722 0)
(86.1609 -0.114248 0)
(86.2173 -0.0893076 0)
(86.2702 -0.0711127 0)
(86.3164 -0.0514566 0)
(86.3428 -0.0346631 0)
(86.3595 -0.0274675 0)
(86.3751 -0.0208439 0)
(86.3861 -0.0157473 0)
(86.3939 -0.0118309 0)
(86.3986 -0.00905277 0)
(86.403 -0.00773006 0)
(86.4093 -0.00853611 0)
(86.4127 -0.00414399 0)
(86.413 -0.000171882 0)
(86.4142 -0.00406481 0)
(86.4159 -0.00078678 0)
(86.4138 0.00395871 0)
(86.4127 0.00220158 0)
(86.4131 0.000325485 0)
(86.414 -0.000555376 0)
(86.4148 -2.08393e-05 0)
(86.4144 0.000738199 0)
(86.4145 -0.000518139 0)
(86.4144 -0.00175785 0)
(86.4153 -0.00118856 0)
(86.4152 -0.0016082 0)
(86.418 -0.00373671 0)
(86.4184 0.000617006 0)
(86.4163 0.00408505 0)
(86.4137 0.000927129 0)
(86.4147 0.000292036 0)
(86.4151 4.38893e-06 0)
(86.415 -0.000186551 0)
(86.4149 -0.000480754 0)
(86.4149 -0.00125769 0)
(86.4176 -0.00346918 0)
(86.4177 0.000979202 0)
(86.4154 0.00442858 0)
(86.4126 0.00120192 0)
(86.4132 0.000565291 0)
(86.4128 0.000228204 0)
(86.4124 -0.000210636 0)
(86.4149 -0.0040883 0)
(86.4162 -0.00193406 0)
(86.4145 0.0056081 0)
(86.4097 0.00598685 0)
(86.4065 0.00472744 0)
(86.4032 0.00532388 0)
(86.3978 0.00716324 0)
(86.3921 0.00994919 0)
(86.3836 0.0135638 0)
(86.3715 0.0216732 0)
(86.3481 0.0372378 0)
(86.3114 0.0545609 0)
(86.2581 0.073666 0)
(86.1778 0.105131 0)
(86.0734 0.150436 0)
(85.9454 0.208461 0)
(85.7214 0.290159 0)
(85.4088 0.41355 0)
(84.9333 0.595555 0)
(84.4478 0.843895 0)
(83.652 1.14743 0)
(82.5856 1.53082 0)
(81.1085 2.0546 0)
(79.0696 2.75359 0)
(76.337 3.6355 0)
(72.6954 4.80026 0)
(67.8626 6.77433 0)
(64.7272 9.87848 0)
(46.7236 5.69821 0)
(1.33665 -12.4981 0)
(10.8224 -11.7841 0)
(15.5293 -11.2792 0)
(20.8101 -10.6786 0)
(26.5071 -9.88868 0)
(31.728 -9.15292 0)
(36.594 -8.44698 0)
(41.0419 -7.66859 0)
(45.2301 -6.95005 0)
(49.1223 -6.40042 0)
(53.0491 -5.8537 0)
(56.2378 -5.23292 0)
(58.9848 -4.59347 0)
(61.3596 -3.98531 0)
(63.3875 -3.43214 0)
(65.1071 -2.92456 0)
(66.5409 -2.4603 0)
(67.7301 -2.05095 0)
(68.691 -1.71087 0)
(69.4674 -1.41116 0)
(69.9667 -1.14643 0)
(70.6285 -0.929951 0)
(71.0252 -0.742439 0)
(71.3144 -0.58939 0)
(71.6067 -0.473567 0)
(71.8168 -0.382962 0)
(71.9593 -0.292657 0)
(72.0651 -0.218314 0)
(72.1617 -0.169439 0)
(72.2358 -0.130877 0)
(72.2866 -0.102006 0)
(72.3306 -0.0825182 0)
(72.3603 -0.0592526 0)
(72.3834 -0.0391962 0)
(72.3955 -0.0314771 0)
(72.409 -0.0237798 0)
(72.4179 -0.0178912 0)
(72.4239 -0.0132953 0)
(72.428 -0.0101021 0)
(72.4309 -0.00863581 0)
(72.4359 -0.0100039 0)
(72.4364 -0.00452362 0)
(72.4377 0.000359588 0)
(72.4391 -0.0050556 0)
(72.4383 -0.000791334 0)
(72.4394 0.00467577 0)
(72.4386 0.00199894 0)
(72.4401 0.000126009 0)
(72.4407 -0.000803697 0)
(72.4418 -0.000148917 0)
(72.4415 0.000845365 0)
(72.4425 -0.000473944 0)
(72.4409 -0.00190725 0)
(72.4416 -0.00118359 0)
(72.4409 -0.00164418 0)
(72.4439 -0.00455884 0)
(72.4411 0.000944895 0)
(72.4422 0.00507509 0)
(72.439 0.000703764 0)
(72.4407 0.000159776 0)
(72.4411 -3.00541e-05 0)
(72.441 -0.000163744 0)
(72.4407 -0.000450723 0)
(72.4402 -0.0012844 0)
(72.4432 -0.0042551 0)
(72.4403 0.00133292 0)
(72.4414 0.00545761 0)
(72.438 0.00106838 0)
(72.4394 0.000542047 0)
(72.4394 0.000230632 0)
(72.4384 -5.55949e-05 0)
(72.4416 -0.0047715 0)
(72.4385 -0.00207521 0)
(72.4385 0.00686453 0)
(72.4351 0.00678434 0)
(72.4327 0.0053711 0)
(72.4302 0.00635794 0)
(72.4251 0.00855073 0)
(72.4193 0.0118567 0)
(72.4111 0.0160587 0)
(72.3998 0.0256266 0)
(72.3781 0.0445897 0)
(72.3478 0.0654151 0)
(72.3025 0.0890966 0)
(72.238 0.126563 0)
(72.1474 0.179015 0)
(72.0206 0.252324 0)
(71.8193 0.356366 0)
(71.5279 0.509214 0)
(71.0887 0.713964 0)
(70.6232 0.99784 0)
(69.9456 1.36888 0)
(68.9709 1.84294 0)
(67.5868 2.48917 0)
(65.6781 3.34002 0)
(63.135 4.39754 0)
(59.8494 5.74803 0)
(55.8598 7.95435 0)
(54.4705 11.7012 0)
(43.9542 6.81464 0)
(0.133769 -13.6817 0)
(7.89678 -13.0534 0)
(10.7681 -12.4904 0)
(14.2984 -11.8811 0)
(18.5575 -11.0776 0)
(22.4588 -10.2829 0)
(26.1246 -9.48759 0)
(29.3779 -8.64719 0)
(32.9869 -7.88944 0)
(36.0994 -7.27665 0)
(39.1225 -6.63316 0)
(41.5972 -5.89632 0)
(43.7209 -5.16214 0)
(45.5952 -4.47491 0)
(47.1779 -3.84808 0)
(48.5208 -3.27358 0)
(49.6347 -2.74989 0)
(50.5602 -2.2887 0)
(51.3038 -1.90073 0)
(51.9043 -1.55663 0)
(52.3437 -1.27352 0)
(52.7972 -1.03921 0)
(53.0898 -0.820523 0)
(53.3229 -0.652777 0)
(53.5261 -0.525004 0)
(53.6775 -0.420015 0)
(53.76 -0.319906 0)
(53.8586 -0.239564 0)
(53.9194 -0.187871 0)
(53.9813 -0.144973 0)
(54.0193 -0.111891 0)
(54.0523 -0.0906316 0)
(54.0633 -0.0644806 0)
(54.0877 -0.0425075 0)
(54.094 -0.0346891 0)
(54.1058 -0.0261046 0)
(54.1124 -0.0194833 0)
(54.1162 -0.0143558 0)
(54.119 -0.0108304 0)
(54.1204 -0.00905883 0)
(54.124 -0.0109209 0)
(54.117 -0.00466286 0)
(54.1235 0.000929097 0)
(54.125 -0.00589164 0)
(54.1168 -0.00088434 0)
(54.1264 0.00489797 0)
(54.1263 0.00144157 0)
(54.1295 -0.000139072 0)
(54.1293 -0.00103488 0)
(54.1305 -0.000340422 0)
(54.1304 0.000813837 0)
(54.1334 -0.000371086 0)
(54.1295 -0.00182387 0)
(54.1296 -0.00102621 0)
(54.1278 -0.00143675 0)
(54.1308 -0.00503389 0)
(54.1199 0.00122585 0)
(54.1308 0.00570905 0)
(54.126 0.000331121 0)
(54.1285 -2.27492e-05 0)
(54.1288 -5.77291e-05 0)
(54.1287 -0.000105709 0)
(54.1281 -0.000341337 0)
(54.1268 -0.001108 0)
(54.13 -0.00473593 0)
(54.1192 0.00160002 0)
(54.1301 0.0061046 0)
(54.1252 0.000765362 0)
(54.1275 0.00042984 0)
(54.1276 0.000236177 0)
(54.1258 0.000234972 0)
(54.1305 -0.00492868 0)
(54.117 -0.00191661 0)
(54.1223 0.00772366 0)
(54.1223 0.00712789 0)
(54.121 0.00573644 0)
(54.1195 0.0071817 0)
(54.1155 0.00984692 0)
(54.1095 0.0137757 0)
(54.1014 0.0184535 0)
(54.0889 0.0290631 0)
(54.069 0.0505499 0)
(54.0512 0.073873 0)
(54.016 0.101047 0)
(53.9667 0.143929 0)
(53.8934 0.203861 0)
(53.7861 0.290172 0)
(53.6192 0.414378 0)
(53.3682 0.588819 0)
(53.0573 0.81559 0)
(52.648 1.13064 0)
(52.0859 1.55756 0)
(51.2582 2.11615 0)
(50.0715 2.87353 0)
(48.4245 3.86052 0)
(46.2178 5.0683 0)
(43.4026 6.53432 0)
(40.1977 8.71555 0)
(39.8973 12.4406 0)
(37.3629 7.18635 0)
(-1.03244 -14.3575 0)
(4.81033 -13.8251 0)
(5.7215 -13.2058 0)
(7.33962 -12.6214 0)
(9.95029 -11.8626 0)
(12.3235 -11.0578 0)
(14.5851 -10.2238 0)
(16.781 -9.38723 0)
(19.1589 -8.63135 0)
(21.2788 -7.95573 0)
(23.2976 -7.23448 0)
(24.921 -6.41751 0)
(26.3203 -5.61327 0)
(27.6029 -4.86578 0)
(28.6516 -4.17855 0)
(29.5421 -3.54996 0)
(30.2702 -2.97909 0)
(30.8855 -2.47705 0)
(31.3694 -2.05104 0)
(31.7598 -1.67648 0)
(32.0586 -1.37289 0)
(32.335 -1.11824 0)
(32.5076 -0.881244 0)
(32.6561 -0.700898 0)
(32.776 -0.561789 0)
(32.8689 -0.445557 0)
(32.8948 -0.340391 0)
(32.976 -0.256845 0)
(33.0073 -0.201612 0)
(33.045 -0.156022 0)
(33.0658 -0.119106 0)
(33.0865 -0.0948044 0)
(33.0698 -0.0682046 0)
(33.1087 -0.0463493 0)
(33.1069 -0.0372479 0)
(33.1162 -0.0279559 0)
(33.1196 -0.0206394 0)
(33.1217 -0.0150751 0)
(33.1227 -0.0112253 0)
(33.1218 -0.00891072 0)
(33.1241 -0.0100201 0)
(33.1 -0.00458113 0)
(33.1211 0.000278823 0)
(33.1226 -0.00529346 0)
(33.0975 -0.00112281 0)
(33.1258 0.00325088 0)
(33.1255 0.000352794 0)
(33.1314 -0.000516058 0)
(33.1297 -0.00113927 0)
(33.131 -0.000582196 0)
(33.1309 0.000430203 0)
(33.1373 -0.00024353 0)
(33.1299 -0.00128474 0)
(33.1293 -0.00064282 0)
(33.1262 -0.000839307 0)
(33.1289 -0.00385588 0)
(33.1007 0.00115726 0)
(33.1332 0.00456826 0)
(33.1252 -1.4333e-05 0)
(33.1281 -0.000201917 0)
(33.1282 -7.64902e-05 0)
(33.1282 -2.1597e-05 0)
(33.1273 -0.000118887 0)
(33.1251 -0.000585737 0)
(33.1279 -0.00359556 0)
(33.0999 0.00150051 0)
(33.1326 0.00495473 0)
(33.1245 0.000452828 0)
(33.1275 0.000291278 0)
(33.1274 0.000278142 0)
(33.1247 0.000581585 0)
(33.132 -0.00316151 0)
(33.0975 -0.000717583 0)
(33.1143 0.00676337 0)
(33.1215 0.00636659 0)
(33.1215 0.00581384 0)
(33.1211 0.00780743 0)
(33.1181 0.0110468 0)
(33.1127 0.0157804 0)
(33.1057 0.0215903 0)
(33.0881 0.0330089 0)
(33.0688 0.0545552 0)
(33.0716 0.079211 0)
(33.0475 0.110071 0)
(33.015 0.157686 0)
(32.9637 0.224684 0)
(32.887 0.322058 0)
(32.7651 0.461383 0)
(32.6063 0.651542 0)
(32.3744 0.899045 0)
(32.0888 1.2433 0)
(31.6819 1.7184 0)
(31.0637 2.35179 0)
(30.1629 3.20849 0)
(28.8939 4.32142 0)
(27.1607 5.67543 0)
(24.919 7.24932 0)
(22.3441 9.27113 0)
(21.9116 12.3416 0)
(24.842 6.81479 0)
(-2.12195 -14.508 0)
(1.80683 -14.0864 0)
(0.770245 -13.4754 0)
(0.494887 -12.9433 0)
(1.35725 -12.2489 0)
(2.10215 -11.4507 0)
(2.8642 -10.6067 0)
(3.75348 -9.77935 0)
(4.81671 -9.02149 0)
(5.79447 -8.30138 0)
(6.74081 -7.52194 0)
(7.46494 -6.65824 0)
(8.07161 -5.8246 0)
(8.65689 -5.04847 0)
(9.10437 -4.32965 0)
(9.48828 -3.67426 0)
(9.78059 -3.08238 0)
(10.059 -2.56172 0)
(10.2494 -2.11582 0)
(10.4022 -1.72909 0)
(10.5193 -1.41467 0)
(10.6235 -1.14733 0)
(10.6681 -0.904723 0)
(10.7204 -0.719042 0)
(10.7563 -0.574017 0)
(10.7883 -0.450887 0)
(10.7416 -0.347451 0)
(10.8149 -0.265566 0)
(10.8183 -0.20629 0)
(10.8291 -0.159871 0)
(10.8302 -0.120669 0)
(10.8373 -0.0922637 0)
(10.7787 -0.0697205 0)
(10.8459 -0.0510613 0)
(10.8376 -0.0381963 0)
(10.8425 -0.0285931 0)
(10.8426 -0.0209187 0)
(10.8426 -0.0151535 0)
(10.8418 -0.0110473 0)
(10.8391 -0.00803992 0)
(10.8403 -0.00591322 0)
(10.7812 -0.00420704 0)
(10.8351 -0.00276478 0)
(10.8359 -0.00210406 0)
(10.7799 -0.00157444 0)
(10.8413 -0.00122129 0)
(10.8382 -0.00124601 0)
(10.8488 -0.00106371 0)
(10.8454 -0.000996593 0)
(10.8466 -0.000801265 0)
(10.846 -0.000427435 0)
(10.8561 -0.000127878 0)
(10.8454 -0.000196563 0)
(10.8442 -3.46465e-05 0)
(10.8402 0.000240257 0)
(10.8416 0.000167522 0)
(10.7827 0.000333454 0)
(10.8516 0.000474567 0)
(10.8404 -0.000142355 0)
(10.8431 -0.000298242 0)
(10.8428 -9.31967e-05 0)
(10.8433 6.79656e-05 0)
(10.8421 0.000223813 0)
(10.8389 0.000386577 0)
(10.8406 0.000367764 0)
(10.782 0.000638449 0)
(10.8508 0.000835777 0)
(10.8397 0.000289476 0)
(10.843 0.000188913 0)
(10.8427 0.000398502 0)
(10.8389 0.000942086 0)
(10.848 0.00156726 0)
(10.7795 0.00206162 0)
(10.8126 0.00279691 0)
(10.837 0.00379219 0)
(10.8381 0.0055098 0)
(10.8386 0.00809479 0)
(10.8367 0.0118298 0)
(10.8325 0.0173664 0)
(10.8273 0.0256292 0)
(10.7933 0.0375021 0)
(10.775 0.0545108 0)
(10.8117 0.0789 0)
(10.7989 0.114008 0)
(10.784 0.164385 0)
(10.7581 0.235316 0)
(10.7184 0.338557 0)
(10.6589 0.484807 0)
(10.5808 0.682972 0)
(10.466 0.942212 0)
(10.3099 1.30319 0)
(10.0864 1.80738 0)
(9.72269 2.48863 0)
(9.1683 3.4095 0)
(8.36321 4.60738 0)
(7.21428 6.06621 0)
(5.67128 7.72085 0)
(3.79375 9.61538 0)
(2.68821 11.8283 0)
(7.5319 6.10235 0)
(-3.10172 -14.1816 0)
(-0.966346 -13.8475 0)
(-3.82521 -13.2451 0)
(-5.8417 -12.7815 0)
(-6.70772 -12.1923 0)
(-7.58516 -11.4548 0)
(-8.33649 -10.6594 0)
(-8.8292 -9.88149 0)
(-9.1049 -9.15857 0)
(-9.32988 -8.44221 0)
(-9.47949 -7.64441 0)
(-9.7072 -6.76463 0)
(-9.90964 -5.91703 0)
(-10.0602 -5.12624 0)
(-10.2331 -4.39146 0)
(-10.3776 -3.72302 0)
(-10.5176 -3.1238 0)
(-10.5989 -2.59448 0)
(-10.7226 -2.13695 0)
(-10.8193 -1.74718 0)
(-10.8988 -1.42756 0)
(-10.964 -1.15312 0)
(-11.0378 -0.910667 0)
(-11.0876 -0.722814 0)
(-11.135 -0.575117 0)
(-11.164 -0.448327 0)
(-11.2285 -0.348175 0)
(-11.2216 -0.269799 0)
(-11.2414 -0.206792 0)
(-11.2594 -0.159432 0)
(-11.2775 -0.119394 0)
(-11.2854 -0.0878615 0)
(-11.3216 -0.0701979 0)
(-11.292 -0.05522 0)
(-11.3047 -0.0383558 0)
(-11.3046 -0.0285589 0)
(-11.3077 -0.0207586 0)
(-11.31 -0.0149343 0)
(-11.3124 -0.0106297 0)
(-11.3159 -0.00704142 0)
(-11.3157 -0.00162135 0)
(-11.3416 -0.00368974 0)
(-11.3202 -0.00578467 0)
(-11.3212 0.00114258 0)
(-11.3457 -0.00217204 0)
(-11.3145 -0.00578741 0)
(-11.3166 -0.00279467 0)
(-11.3104 -0.00161045 0)
(-11.3126 -0.000806276 0)
(-11.3116 -0.000943079 0)
(-11.3124 -0.00129824 0)
(-11.3052 -7.39299e-05 0)
(-11.3128 0.000942138 0)
(-11.3141 0.000669901 0)
(-11.3177 0.00138257 0)
(-11.3166 0.00421953 0)
(-11.3439 -0.000680818 0)
(-11.3074 -0.00383043 0)
(-11.3166 -0.000193641 0)
(-11.3144 -0.000294793 0)
(-11.3146 -7.67833e-05 0)
(-11.3147 0.000196699 0)
(-11.3161 0.000639917 0)
(-11.319 0.00141794 0)
(-11.3175 0.00435242 0)
(-11.3445 -0.000411626 0)
(-11.308 -0.00348544 0)
(-11.3171 0.000193671 0)
(-11.3148 0.000194332 0)
(-11.3153 0.000641995 0)
(-11.319 0.00131921 0)
(-11.3122 0.00617905 0)
(-11.3447 0.00469938 0)
(-11.3253 -0.00121471 0)
(-11.319 0.00120777 0)
(-11.3179 0.00511171 0)
(-11.317 0.00826586 0)
(-11.3177 0.0124048 0)
(-11.3197 0.0185739 0)
(-11.3214 0.0292268 0)
(-11.3329 0.0414887 0)
(-11.3404 0.053294 0)
(-11.3188 0.0769298 0)
(-11.3197 0.115709 0)
(-11.3166 0.167715 0)
(-11.3155 0.240857 0)
(-11.3151 0.346603 0)
(-11.3098 0.495761 0)
(-11.3046 0.697603 0)
(-11.3018 0.964579 0)
(-11.3081 1.33666 0)
(-11.3239 1.86045 0)
(-11.4053 2.57594 0)
(-11.5762 3.54268 0)
(-11.8519 4.80752 0)
(-12.3137 6.36849 0)
(-12.9957 8.12586 0)
(-13.9386 9.91373 0)
(-15.5259 11.2928 0)
(-9.66252 5.39377 0)
(-3.95269 -13.4198 0)
(-3.41195 -13.1749 0)
(-7.88412 -12.6143 0)
(-11.4537 -12.2191 0)
(-13.9045 -11.7242 0)
(-16.3145 -11.0505 0)
(-18.5168 -10.3099 0)
(-20.3776 -9.58602 0)
(-21.9655 -8.90488 0)
(-23.3916 -8.21112 0)
(-24.65 -7.42605 0)
(-25.8077 -6.5694 0)
(-26.8242 -5.74632 0)
(-27.7045 -4.97569 0)
(-28.4933 -4.26008 0)
(-29.1656 -3.61037 0)
(-29.7432 -3.03038 0)
(-30.2141 -2.51539 0)
(-30.626 -2.06785 0)
(-30.9642 -1.69135 0)
(-31.2424 -1.38043 0)
(-31.4724 -1.11223 0)
(-31.6659 -0.879242 0)
(-31.8188 -0.696649 0)
(-31.9364 -0.553855 0)
(-32.0208 -0.430414 0)
(-32.125 -0.334213 0)
(-32.1716 -0.26162 0)
(-32.2038 -0.19906 0)
(-32.2551 -0.151217 0)
(-32.2935 -0.112731 0)
(-32.3149 -0.0823647 0)
(-32.3431 -0.0678701 0)
(-32.3401 -0.0545392 0)
(-32.3555 -0.0370407 0)
(-32.3599 -0.0273426 0)
(-32.366 -0.0197224 0)
(-32.3705 -0.0140825 0)
(-32.3744 -0.00979132 0)
(-32.3783 -0.00597206 0)
(-32.3786 2.23293e-06 0)
(-32.3886 -0.00317363 0)
(-32.3824 -0.006076 0)
(-32.3837 0.00194357 0)
(-32.3915 -0.00280868 0)
(-32.378 -0.00756953 0)
(-32.3807 -0.00370919 0)
(-32.3775 -0.00190765 0)
(-32.3785 -0.000759676 0)
(-32.3778 -0.00101337 0)
(-32.3787 -0.0016905 0)
(-32.375 -3.82825e-05 0)
(-32.379 0.0016016 0)
(-32.38 0.00129254 0)
(-32.3827 0.00225157 0)
(-32.381 0.00546463 0)
(-32.3908 -0.00142691 0)
(-32.3747 -0.0054061 0)
(-32.3809 -0.000329855 0)
(-32.3798 -0.000249444 0)
(-32.38 1.36358e-06 0)
(-32.3805 0.000382715 0)
(-32.3817 0.00102716 0)
(-32.3837 0.00217996 0)
(-32.3818 0.00553108 0)
(-32.3914 -0.00119979 0)
(-32.3752 -0.00507902 0)
(-32.3814 5.09014e-05 0)
(-32.3803 0.000292455 0)
(-32.381 0.000924989 0)
(-32.3839 0.00178822 0)
(-32.3791 0.00763031 0)
(-32.3901 0.00523013 0)
(-32.3809 -0.00242106 0)
(-32.3819 0.000287531 0)
(-32.3813 0.00469812 0)
(-32.3801 0.00814422 0)
(-32.3796 0.0124381 0)
(-32.379 0.0187808 0)
(-32.3767 0.0299079 0)
(-32.3758 0.0417335 0)
(-32.3729 0.0513499 0)
(-32.3562 0.0737962 0)
(-32.3445 0.112584 0)
(-32.3232 0.163688 0)
(-32.2945 0.235515 0)
(-32.2536 0.338492 0)
(-32.1923 0.483764 0)
(-32.1037 0.680051 0)
(-31.9724 0.943211 0)
(-31.8179 1.31324 0)