/*--------------------------------*- C++ -*----------------------------------*\
| =========                 |                                                 |
| \\      /  F ield         | foam-extend: Open Source CFD                    |
|  \\    /   O peration     | Version:     5.0                                |
|   \\  /    A nd           | Web:         http://www.foam-extend.org         |
|    \\/     M anipulation  |                                                 |
\*---------------------------------------------------------------------------*/
FoamFile
{
    version     2.0;
    format      ascii;
    class       volVectorField;
    location    "0.025";
    object      currentDensity;
}
// * * * * * * * * * * * * * * * * * * * * * * * * * * * * * * * * * * * * * //

dimensions      [0 -2 0 0 0 1 0];

internalField   nonuniform List<vector> 
4000
(
(0 0 5.83854)
(0 0 6.45092)
(0 0 4.99127)
(0 0 3.96376)
(0 0 2.44736)
(0 0 1.39881)
(0 0 0.644645)
(0 0 -0.0638577)
(0 0 -0.718823)
(0 0 -1.28103)
(0 0 -1.75211)
(0 0 -2.147)
(0 0 -2.47502)
(0 0 -2.74345)
(0 0 -2.95922)
(0 0 -3.13042)
(0 0 -3.2643)
(0 0 -3.36755)
(0 0 -3.44625)
(0 0 -3.50547)
(0 0 -3.54956)
(0 0 -3.58203)
(0 0 -3.60572)
(0 0 -3.62284)
(0 0 -3.63511)
(0 0 -3.64383)
(0 0 -3.64998)
(0 0 -3.65429)
(0 0 -3.65728)
(0 0 -3.65935)
(0 0 -3.66077)
(0 0 -3.66174)
(0 0 -3.6624)
(0 0 -3.66284)
(0 0 -3.66314)
(0 0 -3.66334)
(0 0 -3.66347)
(0 0 -3.66356)
(0 0 -3.66361)
(0 0 -3.66365)
(0 0 -3.66368)
(0 0 -3.66369)
(0 0 -3.6637)
(0 0 -3.66371)
(0 0 -3.66371)
(0 0 -3.66372)
(0 0 -3.66372)
(0 0 -3.66372)
(0 0 -3.66372)
(0 0 -3.66372)
(0 0 -3.66372)
(0 0 -3.66372)
(0 0 -3.66372)
(0 0 -3.66372)
(0 0 -3.66372)
(0 0 -3.66372)
(0 0 -3.66372)
(0 0 -3.66372)
(0 0 -3.66372)
(0 0 -3.66372)
(0 0 -3.66372)
(0 0 -3.66372)
(0 0 -3.66372)
(0 0 -3.66372)
(0 0 -3.66372)
(0 0 -3.66372)
(0 0 -3.66372)
(0 0 -3.66372)
(0 0 -3.66372)
(0 0 -3.66372)
(0 0 -3.66372)
(0 0 -3.66372)
(0 0 -3.66371)
(0 0 -3.66371)
(0 0 -3.6637)
(0 0 -3.66368)
(0 0 -3.66366)
(0 0 -3.66364)
(0 0 -3.6636)
(0 0 -3.66356)
(0 0 -3.66349)
(0 0 -3.6634)
(0 0 -3.66329)
(0 0 -3.66314)
(0 0 -3.66295)
(0 0 -3.6627)
(0 0 -3.66237)
(0 0 -3.66193)
(0 0 -3.66133)
(0 0 -3.66049)
(0 0 -3.65909)
(0 0 -3.6564)
(0 0 -3.6523)
(0 0 -3.64893)
(0 0 -3.64196)
(0 0 -3.60849)
(0 0 -3.56832)
(0 0 -3.56786)
(0 0 -3.44784)
(0 0 -3.40792)
(0 0 10.1608)
(0 0 7.8874)
(0 0 3.52829)
(0 0 0.979552)
(0 0 -2.59194)
(0 0 -5.46226)
(0 0 -7.60737)
(0 0 -9.47646)
(0 0 -11.1339)
(0 0 -12.5453)
(0 0 -13.72)
(0 0 -14.6912)
(0 0 -15.4857)
(0 0 -16.1287)
(0 0 -16.6403)
(0 0 -17.0424)
(0 0 -17.3543)
(0 0 -17.593)
(0 0 -17.7738)
(0 0 -17.909)
(0 0 -18.0091)
(0 0 -18.0825)
(0 0 -18.1358)
(0 0 -18.1741)
(0 0 -18.2015)
(0 0 -18.2209)
(0 0 -18.2345)
(0 0 -18.244)
(0 0 -18.2506)
(0 0 -18.2552)
(0 0 -18.2583)
(0 0 -18.2604)
(0 0 -18.2618)
(0 0 -18.2628)
(0 0 -18.2634)
(0 0 -18.2639)
(0 0 -18.2641)
(0 0 -18.2643)
(0 0 -18.2645)
(0 0 -18.2645)
(0 0 -18.2646)
(0 0 -18.2646)
(0 0 -18.2646)
(0 0 -18.2647)
(0 0 -18.2647)
(0 0 -18.2647)
(0 0 -18.2647)
(0 0 -18.2647)
(0 0 -18.2647)
(0 0 -18.2647)
(0 0 -18.2647)
(0 0 -18.2647)
(0 0 -18.2647)
(0 0 -18.2647)
(0 0 -18.2647)
(0 0 -18.2647)
(0 0 -18.2647)
(0 0 -18.2647)
(0 0 -18.2647)
(0 0 -18.2647)
(0 0 -18.2647)
(0 0 -18.2647)
(0 0 -18.2647)
(0 0 -18.2647)
(0 0 -18.2647)
(0 0 -18.2647)
(0 0 -18.2647)
(0 0 -18.2647)
(0 0 -18.2647)
(0 0 -18.2647)
(0 0 -18.2647)
(0 0 -18.2647)
(0 0 -18.2647)
(0 0 -18.2647)
(0 0 -18.2646)
(0 0 -18.2646)
(0 0 -18.2646)
(0 0 -18.2645)
(0 0 -18.2644)
(0 0 -18.2643)
(0 0 -18.2642)
(0 0 -18.264)
(0 0 -18.2637)
(0 0 -18.2634)
(0 0 -18.2629)
(0 0 -18.2624)
(0 0 -18.2616)
(0 0 -18.2606)
(0 0 -18.2592)
(0 0 -18.2572)
(0 0 -18.2539)
(0 0 -18.2483)
(0 0 -18.2401)
(0 0 -18.2316)
(0 0 -18.21)
(0 0 -18.1395)
(0 0 -18.0804)
(0 0 -18.079)
(0 0 -17.7568)
(0 0 -17.7813)
(0 0 12.781)
(0 0 7.50237)
(0 0 0.51249)
(0 0 -3.06356)
(0 0 -7.76336)
(0 0 -11.8179)
(0 0 -14.947)
(0 0 -17.6054)
(0 0 -19.8783)
(0 0 -21.7881)
(0 0 -23.3594)
(0 0 -24.6412)
(0 0 -25.6739)
(0 0 -26.5)
(0 0 -27.1497)
(0 0 -27.6549)
(0 0 -28.0428)
(0 0 -28.3372)
(0 0 -28.5581)
(0 0 -28.7222)
(0 0 -28.8429)
(0 0 -28.9308)
(0 0 -28.9941)
(0 0 -29.0396)
(0 0 -29.0719)
(0 0 -29.0946)
(0 0 -29.1106)
(0 0 -29.1216)
(0 0 -29.1293)
(0 0 -29.1345)
(0 0 -29.1381)
(0 0 -29.1405)
(0 0 -29.1422)
(0 0 -29.1433)
(0 0 -29.144)
(0 0 -29.1445)
(0 0 -29.1448)
(0 0 -29.145)
(0 0 -29.1452)
(0 0 -29.1453)
(0 0 -29.1453)
(0 0 -29.1454)
(0 0 -29.1454)
(0 0 -29.1454)
(0 0 -29.1454)
(0 0 -29.1454)
(0 0 -29.1454)
(0 0 -29.1454)
(0 0 -29.1454)
(0 0 -29.1454)
(0 0 -29.1454)
(0 0 -29.1454)
(0 0 -29.1454)
(0 0 -29.1454)
(0 0 -29.1454)
(0 0 -29.1454)
(0 0 -29.1454)
(0 0 -29.1454)
(0 0 -29.1454)
(0 0 -29.1454)
(0 0 -29.1454)
(0 0 -29.1454)
(0 0 -29.1454)
(0 0 -29.1454)
(0 0 -29.1454)
(0 0 -29.1455)
(0 0 -29.1455)
(0 0 -29.1455)
(0 0 -29.1454)
(0 0 -29.1454)
(0 0 -29.1454)
(0 0 -29.1454)
(0 0 -29.1454)
(0 0 -29.1454)
(0 0 -29.1454)
(0 0 -29.1454)
(0 0 -29.1453)
(0 0 -29.1452)
(0 0 -29.1452)
(0 0 -29.145)
(0 0 -29.1449)
(0 0 -29.1446)
(0 0 -29.1443)
(0 0 -29.1439)
(0 0 -29.1433)
(0 0 -29.1426)
(0 0 -29.1416)
(0 0 -29.1404)
(0 0 -29.1386)
(0 0 -29.1362)
(0 0 -29.1323)
(0 0 -29.1259)
(0 0 -29.1169)
(0 0 -29.1066)
(0 0 -29.0793)
(0 0 -29.0012)
(0 0 -28.9576)
(0 0 -28.9582)
(0 0 -28.4777)
(0 0 -28.598)
(0 0 14.9896)
(0 0 8.12635)
(0 0 -0.110048)
(0 0 -4.10067)
(0 0 -9.32998)
(0 0 -13.9681)
(0 0 -17.6304)
(0 0 -20.7024)
(0 0 -23.3007)
(0 0 -25.4648)
(0 0 -27.2293)
(0 0 -28.6553)
(0 0 -29.7883)
(0 0 -30.6905)
(0 0 -31.3931)
(0 0 -31.9348)
(0 0 -32.3471)
(0 0 -32.6579)
(0 0 -32.8896)
(0 0 -33.0605)
(0 0 -33.1855)
(0 0 -33.276)
(0 0 -33.3411)
(0 0 -33.3874)
(0 0 -33.4202)
(0 0 -33.4432)
(0 0 -33.4592)
(0 0 -33.4703)
(0 0 -33.4779)
(0 0 -33.4832)
(0 0 -33.4867)
(0 0 -33.4891)
(0 0 -33.4907)
(0 0 -33.4918)
(0 0 -33.4925)
(0 0 -33.493)
(0 0 -33.4933)
(0 0 -33.4936)
(0 0 -33.4937)
(0 0 -33.4938)
(0 0 -33.4938)
(0 0 -33.4939)
(0 0 -33.4939)
(0 0 -33.4939)
(0 0 -33.4939)
(0 0 -33.4939)
(0 0 -33.4939)
(0 0 -33.4939)
(0 0 -33.4939)
(0 0 -33.4939)
(0 0 -33.4939)
(0 0 -33.4939)
(0 0 -33.4939)
(0 0 -33.4939)
(0 0 -33.4939)
(0 0 -33.4939)
(0 0 -33.4939)
(0 0 -33.4939)
(0 0 -33.4939)
(0 0 -33.4939)
(0 0 -33.4939)
(0 0 -33.4939)
(0 0 -33.4939)
(0 0 -33.4939)
(0 0 -33.4939)
(0 0 -33.4939)
(0 0 -33.4939)
(0 0 -33.4939)
(0 0 -33.4939)
(0 0 -33.4939)
(0 0 -33.4939)
(0 0 -33.4939)
(0 0 -33.4939)
(0 0 -33.4939)
(0 0 -33.4939)
(0 0 -33.4939)
(0 0 -33.4938)
(0 0 -33.4937)
(0 0 -33.4937)
(0 0 -33.4935)
(0 0 -33.4933)
(0 0 -33.4931)
(0 0 -33.4928)
(0 0 -33.4923)
(0 0 -33.4917)
(0 0 -33.491)
(0 0 -33.4899)
(0 0 -33.4886)
(0 0 -33.4867)
(0 0 -33.4841)
(0 0 -33.4802)
(0 0 -33.4738)
(0 0 -33.465)
(0 0 -33.455)
(0 0 -33.4279)
(0 0 -33.3508)
(0 0 -33.3224)
(0 0 -33.3365)
(0 0 -32.7455)
(0 0 -32.9511)
(0 0 17.0752)
(0 0 10.162)
(0 0 2.20725)
(0 0 -1.45256)
(0 0 -6.70132)
(0 0 -11.4072)
(0 0 -15.1579)
(0 0 -18.329)
(0 0 -21.0121)
(0 0 -23.2474)
(0 0 -25.0594)
(0 0 -26.5178)
(0 0 -27.6741)
(0 0 -28.5843)
(0 0 -29.2893)
(0 0 -29.8294)
(0 0 -30.2384)
(0 0 -30.545)
(0 0 -30.7723)
(0 0 -30.9393)
(0 0 -31.0608)
(0 0 -31.1485)
(0 0 -31.2114)
(0 0 -31.2559)
(0 0 -31.2873)
(0 0 -31.3093)
(0 0 -31.3246)
(0 0 -31.3352)
(0 0 -31.3425)
(0 0 -31.3474)
(0 0 -31.3508)
(0 0 -31.3531)
(0 0 -31.3546)
(0 0 -31.3556)
(0 0 -31.3563)
(0 0 -31.3567)
(0 0 -31.357)
(0 0 -31.3572)
(0 0 -31.3574)
(0 0 -31.3574)
(0 0 -31.3575)
(0 0 -31.3575)
(0 0 -31.3575)
(0 0 -31.3576)
(0 0 -31.3576)
(0 0 -31.3576)
(0 0 -31.3576)
(0 0 -31.3576)
(0 0 -31.3576)
(0 0 -31.3576)
(0 0 -31.3576)
(0 0 -31.3576)
(0 0 -31.3576)
(0 0 -31.3576)
(0 0 -31.3576)
(0 0 -31.3576)
(0 0 -31.3576)
(0 0 -31.3576)
(0 0 -31.3576)
(0 0 -31.3576)
(0 0 -31.3576)
(0 0 -31.3576)
(0 0 -31.3576)
(0 0 -31.3576)
(0 0 -31.3576)
(0 0 -31.3576)
(0 0 -31.3576)
(0 0 -31.3576)
(0 0 -31.3576)
(0 0 -31.3576)
(0 0 -31.3576)
(0 0 -31.3576)
(0 0 -31.3576)
(0 0 -31.3576)
(0 0 -31.3575)
(0 0 -31.3575)
(0 0 -31.3575)
(0 0 -31.3574)
(0 0 -31.3573)
(0 0 -31.3572)
(0 0 -31.357)
(0 0 -31.3568)
(0 0 -31.3564)
(0 0 -31.356)
(0 0 -31.3554)
(0 0 -31.3547)
(0 0 -31.3536)
(0 0 -31.3523)
(0 0 -31.3504)
(0 0 -31.3479)
(0 0 -31.3442)
(0 0 -31.338)
(0 0 -31.3297)
(0 0 -31.3211)
(0 0 -31.2968)
(0 0 -31.2205)
(0 0 -31.2007)
(0 0 -31.2401)
(0 0 -30.5724)
(0 0 -30.8761)
(0 0 19.0476)
(0 0 13.1787)
(0 0 6.56345)
(0 0 3.92829)
(0 0 -0.85021)
(0 0 -5.18877)
(0 0 -8.65919)
(0 0 -11.6398)
(0 0 -14.1837)
(0 0 -16.3264)
(0 0 -18.0541)
(0 0 -19.444)
(0 0 -20.544)
(0 0 -21.405)
(0 0 -22.0691)
(0 0 -22.5758)
(0 0 -22.9579)
(0 0 -23.2431)
(0 0 -23.4537)
(0 0 -23.608)
(0 0 -23.7199)
(0 0 -23.8004)
(0 0 -23.8578)
(0 0 -23.8985)
(0 0 -23.9271)
(0 0 -23.9471)
(0 0 -23.961)
(0 0 -23.9705)
(0 0 -23.9771)
(0 0 -23.9816)
(0 0 -23.9846)
(0 0 -23.9866)
(0 0 -23.988)
(0 0 -23.9889)
(0 0 -23.9895)
(0 0 -23.9899)
(0 0 -23.9902)
(0 0 -23.9904)
(0 0 -23.9905)
(0 0 -23.9906)
(0 0 -23.9906)
(0 0 -23.9906)
(0 0 -23.9906)
(0 0 -23.9907)
(0 0 -23.9907)
(0 0 -23.9907)
(0 0 -23.9907)
(0 0 -23.9907)
(0 0 -23.9907)
(0 0 -23.9907)
(0 0 -23.9907)
(0 0 -23.9907)
(0 0 -23.9907)
(0 0 -23.9907)
(0 0 -23.9907)
(0 0 -23.9907)
(0 0 -23.9907)
(0 0 -23.9907)
(0 0 -23.9907)
(0 0 -23.9907)
(0 0 -23.9907)
(0 0 -23.9907)
(0 0 -23.9907)
(0 0 -23.9907)
(0 0 -23.9907)
(0 0 -23.9907)
(0 0 -23.9907)
(0 0 -23.9907)
(0 0 -23.9907)
(0 0 -23.9907)
(0 0 -23.9907)
(0 0 -23.9907)
(0 0 -23.9907)
(0 0 -23.9907)
(0 0 -23.9906)
(0 0 -23.9906)
(0 0 -23.9906)
(0 0 -23.9905)
(0 0 -23.9904)
(0 0 -23.9903)
(0 0 -23.9902)
(0 0 -23.9899)
(0 0 -23.9896)
(0 0 -23.9892)
(0 0 -23.9887)
(0 0 -23.988)
(0 0 -23.987)
(0 0 -23.9858)
(0 0 -23.9841)
(0 0 -23.9818)
(0 0 -23.9784)
(0 0 -23.9727)
(0 0 -23.9652)
(0 0 -23.959)
(0 0 -23.9387)
(0 0 -23.8634)
(0 0 -23.8513)
(0 0 -23.9222)
(0 0 -23.1948)
(0 0 -23.5669)
(0 0 20.7817)
(0 0 16.5037)
(0 0 11.787)
(0 0 10.6482)
(0 0 6.72122)
(0 0 3.07478)
(0 0 0.173125)
(0 0 -2.39146)
(0 0 -4.63322)
(0 0 -6.52385)
(0 0 -8.05722)
(0 0 -9.29321)
(0 0 -10.2706)
(0 0 -11.0338)
(0 0 -11.6208)
(0 0 -12.0672)
(0 0 -12.4027)
(0 0 -12.6523)
(0 0 -12.836)
(0 0 -12.9702)
(0 0 -13.0672)
(0 0 -13.1367)
(0 0 -13.1863)
(0 0 -13.2213)
(0 0 -13.2458)
(0 0 -13.263)
(0 0 -13.2748)
(0 0 -13.283)
(0 0 -13.2886)
(0 0 -13.2924)
(0 0 -13.2949)
(0 0 -13.2967)
(0 0 -13.2978)
(0 0 -13.2986)
(0 0 -13.2991)
(0 0 -13.2995)
(0 0 -13.2997)
(0 0 -13.2998)
(0 0 -13.2999)
(0 0 -13.3)
(0 0 -13.3)
(0 0 -13.3001)
(0 0 -13.3001)
(0 0 -13.3001)
(0 0 -13.3001)
(0 0 -13.3001)
(0 0 -13.3001)
(0 0 -13.3001)
(0 0 -13.3001)
(0 0 -13.3001)
(0 0 -13.3001)
(0 0 -13.3001)
(0 0 -13.3001)
(0 0 -13.3001)
(0 0 -13.3001)
(0 0 -13.3001)
(0 0 -13.3001)
(0 0 -13.3001)
(0 0 -13.3001)
(0 0 -13.3001)
(0 0 -13.3001)
(0 0 -13.3001)
(0 0 -13.3001)
(0 0 -13.3001)
(0 0 -13.3001)
(0 0 -13.3001)
(0 0 -13.3001)
(0 0 -13.3001)
(0 0 -13.3001)
(0 0 -13.3001)
(0 0 -13.3001)
(0 0 -13.3001)
(0 0 -13.3001)
(0 0 -13.3001)
(0 0 -13.3001)
(0 0 -13.3)
(0 0 -13.3)
(0 0 -13.3)
(0 0 -13.2999)
(0 0 -13.2998)
(0 0 -13.2997)
(0 0 -13.2995)
(0 0 -13.2992)
(0 0 -13.2989)
(0 0 -13.2984)
(0 0 -13.2978)
(0 0 -13.2969)
(0 0 -13.2958)
(0 0 -13.2943)
(0 0 -13.2924)
(0 0 -13.2895)
(0 0 -13.2846)
(0 0 -13.2782)
(0 0 -13.2749)
(0 0 -13.2593)
(0 0 -13.1853)
(0 0 -13.1826)
(0 0 -13.2856)
(0 0 -12.5035)
(0 0 -12.8979)
(0 0 22.1944)
(0 0 19.5652)
(0 0 16.887)
(0 0 17.4511)
(0 0 14.6057)
(0 0 11.8548)
(0 0 9.70543)
(0 0 7.72712)
(0 0 5.92775)
(0 0 4.39209)
(0 0 3.13964)
(0 0 2.12358)
(0 0 1.32025)
(0 0 0.693532)
(0 0 0.212487)
(0 0 -0.152261)
(0 0 -0.425566)
(0 0 -0.628176)
(0 0 -0.776869)
(0 0 -0.885035)
(0 0 -0.963022)
(0 0 -1.01881)
(0 0 -1.05842)
(0 0 -1.08633)
(0 0 -1.10587)
(0 0 -1.11946)
(0 0 -1.12885)
(0 0 -1.1353)
(0 0 -1.13971)
(0 0 -1.14271)
(0 0 -1.14473)
(0 0 -1.1461)
(0 0 -1.14701)
(0 0 -1.14762)
(0 0 -1.14802)
(0 0 -1.14829)
(0 0 -1.14846)
(0 0 -1.14857)
(0 0 -1.14865)
(0 0 -1.1487)
(0 0 -1.14873)
(0 0 -1.14875)
(0 0 -1.14876)
(0 0 -1.14877)
(0 0 -1.14877)
(0 0 -1.14877)
(0 0 -1.14877)
(0 0 -1.14878)
(0 0 -1.14878)
(0 0 -1.14878)
(0 0 -1.14878)
(0 0 -1.14878)
(0 0 -1.14878)
(0 0 -1.14878)
(0 0 -1.14878)
(0 0 -1.14878)
(0 0 -1.14878)
(0 0 -1.14878)
(0 0 -1.14878)
(0 0 -1.14878)
(0 0 -1.14878)
(0 0 -1.14878)
(0 0 -1.14878)
(0 0 -1.14878)
(0 0 -1.14878)
(0 0 -1.14878)
(0 0 -1.14879)
(0 0 -1.14879)
(0 0 -1.14879)
(0 0 -1.14879)
(0 0 -1.14879)
(0 0 -1.14879)
(0 0 -1.14878)
(0 0 -1.14878)
(0 0 -1.14877)
(0 0 -1.14875)
(0 0 -1.14872)
(0 0 -1.14869)
(0 0 -1.14863)
(0 0 -1.14855)
(0 0 -1.14844)
(0 0 -1.14829)
(0 0 -1.14808)
(0 0 -1.1478)
(0 0 -1.14742)
(0 0 -1.14691)
(0 0 -1.14623)
(0 0 -1.14534)
(0 0 -1.14417)
(0 0 -1.14266)
(0 0 -1.14041)
(0 0 -1.13639)
(0 0 -1.1315)
(0 0 -1.13136)
(0 0 -1.12053)
(0 0 -1.04878)
(0 0 -1.05729)
(0 0 -1.19066)
(0 0 -0.35353)
(0 0 -0.73803)
(0 0 23.2559)
(0 0 22.0341)
(0 0 21.223)
(0 0 23.4575)
(0 0 21.7725)
(0 0 20.0072)
(0 0 18.7126)
(0 0 17.416)
(0 0 16.1502)
(0 0 15.0423)
(0 0 14.1313)
(0 0 13.3846)
(0 0 12.7933)
(0 0 12.3317)
(0 0 11.9782)
(0 0 11.7111)
(0 0 11.5117)
(0 0 11.3645)
(0 0 11.2569)
(0 0 11.1791)
(0 0 11.1232)
(0 0 11.0833)
(0 0 11.0551)
(0 0 11.0353)
(0 0 11.0215)
(0 0 11.012)
(0 0 11.0054)
(0 0 11.0009)
(0 0 10.9978)
(0 0 10.9957)
(0 0 10.9943)
(0 0 10.9933)
(0 0 10.9927)
(0 0 10.9923)
(0 0 10.992)
(0 0 10.9918)
(0 0 10.9917)
(0 0 10.9916)
(0 0 10.9916)
(0 0 10.9915)
(0 0 10.9915)
(0 0 10.9915)
(0 0 10.9915)
(0 0 10.9915)
(0 0 10.9915)
(0 0 10.9915)
(0 0 10.9915)
(0 0 10.9915)
(0 0 10.9915)
(0 0 10.9915)
(0 0 10.9915)
(0 0 10.9915)
(0 0 10.9915)
(0 0 10.9915)
(0 0 10.9915)
(0 0 10.9915)
(0 0 10.9915)
(0 0 10.9915)
(0 0 10.9915)
(0 0 10.9915)
(0 0 10.9915)
(0 0 10.9915)
(0 0 10.9915)
(0 0 10.9915)
(0 0 10.9915)
(0 0 10.9915)
(0 0 10.9915)
(0 0 10.9915)
(0 0 10.9915)
(0 0 10.9915)
(0 0 10.9915)
(0 0 10.9915)
(0 0 10.9915)
(0 0 10.9915)
(0 0 10.9915)
(0 0 10.9915)
(0 0 10.9915)
(0 0 10.9915)
(0 0 10.9916)
(0 0 10.9916)
(0 0 10.9917)
(0 0 10.9918)
(0 0 10.992)
(0 0 10.9922)
(0 0 10.9924)
(0 0 10.9928)
(0 0 10.9933)
(0 0 10.9939)
(0 0 10.9948)
(0 0 10.9958)
(0 0 10.9973)
(0 0 11.0003)
(0 0 11.0036)
(0 0 11.0004)
(0 0 11.0064)
(0 0 11.0752)
(0 0 11.0535)
(0 0 10.8915)
(0 0 11.7835)
(0 0 11.4223)
(0 0 23.9866)
(0 0 23.7998)
(0 0 24.5032)
(0 0 28.2048)
(0 0 27.6342)
(0 0 26.8472)
(0 0 26.4323)
(0 0 25.8572)
(0 0 25.1726)
(0 0 24.5355)
(0 0 24.0015)
(0 0 23.5584)
(0 0 23.2044)
(0 0 22.9275)
(0 0 22.7163)
(0 0 22.5576)
(0 0 22.4401)
(0 0 22.3542)
(0 0 22.2919)
(0 0 22.2473)
(0 0 22.2155)
(0 0 22.193)
(0 0 22.1773)
(0 0 22.1663)
(0 0 22.1588)
(0 0 22.1535)
(0 0 22.15)
(0 0 22.1475)
(0 0 22.1459)
(0 0 22.1448)
(0 0 22.144)
(0 0 22.1435)
(0 0 22.1432)
(0 0 22.143)
(0 0 22.1428)
(0 0 22.1427)
(0 0 22.1427)
(0 0 22.1426)
(0 0 22.1426)
(0 0 22.1426)
(0 0 22.1426)
(0 0 22.1426)
(0 0 22.1426)
(0 0 22.1426)
(0 0 22.1426)
(0 0 22.1426)
(0 0 22.1426)
(0 0 22.1426)
(0 0 22.1426)
(0 0 22.1426)
(0 0 22.1426)
(0 0 22.1426)
(0 0 22.1426)
(0 0 22.1426)
(0 0 22.1426)
(0 0 22.1426)
(0 0 22.1426)
(0 0 22.1426)
(0 0 22.1426)
(0 0 22.1426)
(0 0 22.1426)
(0 0 22.1426)
(0 0 22.1426)
(0 0 22.1426)
(0 0 22.1426)
(0 0 22.1426)
(0 0 22.1426)
(0 0 22.1426)
(0 0 22.1426)
(0 0 22.1426)
(0 0 22.1426)
(0 0 22.1426)
(0 0 22.1426)
(0 0 22.1426)
(0 0 22.1426)
(0 0 22.1426)
(0 0 22.1426)
(0 0 22.1426)
(0 0 22.1426)
(0 0 22.1426)
(0 0 22.1427)
(0 0 22.1427)
(0 0 22.1428)
(0 0 22.1429)
(0 0 22.1431)
(0 0 22.1433)
(0 0 22.1436)
(0 0 22.144)
(0 0 22.1444)
(0 0 22.1449)
(0 0 22.1456)
(0 0 22.1476)
(0 0 22.1491)
(0 0 22.1425)
(0 0 22.1438)
(0 0 22.2088)
(0 0 22.1725)
(0 0 21.9819)
(0 0 22.9248)
(0 0 22.5751)
(0 0 24.4383)
(0 0 24.8981)
(0 0 26.7014)
(0 0 31.5793)
(0 0 31.9818)
(0 0 32.0979)
(0 0 32.5267)
(0 0 32.6684)
(0 0 32.5756)
(0 0 32.4276)
(0 0 32.2895)
(0 0 32.1654)
(0 0 32.0624)
(0 0 31.9811)
(0 0 31.9206)
(0 0 31.8767)
(0 0 31.8458)
(0 0 31.8244)
(0 0 31.8098)
(0 0 31.8)
(0 0 31.7936)
(0 0 31.7893)
(0 0 31.7866)
(0 0 31.7848)
(0 0 31.7837)
(0 0 31.783)
(0 0 31.7826)
(0 0 31.7823)
(0 0 31.7822)
(0 0 31.7821)
(0 0 31.782)
(0 0 31.782)
(0 0 31.782)
(0 0 31.782)
(0 0 31.7819)
(0 0 31.7819)
(0 0 31.7819)
(0 0 31.7819)
(0 0 31.7819)
(0 0 31.7819)
(0 0 31.7819)
(0 0 31.7819)
(0 0 31.7819)
(0 0 31.7819)
(0 0 31.7819)
(0 0 31.7819)
(0 0 31.7819)
(0 0 31.7819)
(0 0 31.7819)
(0 0 31.7819)
(0 0 31.7819)
(0 0 31.782)
(0 0 31.782)
(0 0 31.782)
(0 0 31.7819)
(0 0 31.7819)
(0 0 31.7819)
(0 0 31.7819)
(0 0 31.7819)
(0 0 31.7819)
(0 0 31.7819)
(0 0 31.7819)
(0 0 31.7819)
(0 0 31.7819)
(0 0 31.7819)
(0 0 31.7819)
(0 0 31.7819)
(0 0 31.7819)
(0 0 31.7819)
(0 0 31.7819)
(0 0 31.7819)
(0 0 31.7819)
(0 0 31.7819)
(0 0 31.7819)
(0 0 31.7819)
(0 0 31.7819)
(0 0 31.7819)
(0 0 31.7819)
(0 0 31.7819)
(0 0 31.7819)
(0 0 31.7819)
(0 0 31.7819)
(0 0 31.782)
(0 0 31.782)
(0 0 31.782)
(0 0 31.7821)
(0 0 31.7821)
(0 0 31.7822)
(0 0 31.7822)
(0 0 31.7822)
(0 0 31.7822)
(0 0 31.7831)
(0 0 31.7829)
(0 0 31.7731)
(0 0 31.7698)
(0 0 31.83)
(0 0 31.7779)
(0 0 31.5563)
(0 0 32.5397)
(0 0 32.1463)
(0 0 24.6754)
(0 0 25.4452)
(0 0 27.9541)
(0 0 33.6916)
(0 0 34.8812)
(0 0 35.7843)
(0 0 36.978)
(0 0 37.7937)
(0 0 38.2749)
(0 0 38.61)
(0 0 38.8687)
(0 0 39.0655)
(0 0 39.2169)
(0 0 39.3343)
(0 0 39.4271)
(0 0 39.5)
(0 0 39.557)
(0 0 39.6011)
(0 0 39.6349)
(0 0 39.6605)
(0 0 39.6796)
(0 0 39.6938)
(0 0 39.7041)
(0 0 39.7117)
(0 0 39.7171)
(0 0 39.7209)
(0 0 39.7237)
(0 0 39.7256)
(0 0 39.7269)
(0 0 39.7278)
(0 0 39.7284)
(0 0 39.7289)
(0 0 39.7292)
(0 0 39.7294)
(0 0 39.7295)
(0 0 39.7296)
(0 0 39.7296)
(0 0 39.7297)
(0 0 39.7297)
(0 0 39.7297)
(0 0 39.7297)
(0 0 39.7297)
(0 0 39.7297)
(0 0 39.7297)
(0 0 39.7297)
(0 0 39.7298)
(0 0 39.7298)
(0 0 39.7298)
(0 0 39.7298)
(0 0 39.7298)
(0 0 39.7298)
(0 0 39.7298)
(0 0 39.7298)
(0 0 39.7298)
(0 0 39.7298)
(0 0 39.7298)
(0 0 39.7298)
(0 0 39.7298)
(0 0 39.7298)
(0 0 39.7298)
(0 0 39.7298)
(0 0 39.7298)
(0 0 39.7298)
(0 0 39.7297)
(0 0 39.7297)
(0 0 39.7297)
(0 0 39.7297)
(0 0 39.7297)
(0 0 39.7297)
(0 0 39.7297)
(0 0 39.7297)
(0 0 39.7297)
(0 0 39.7297)
(0 0 39.7297)
(0 0 39.7297)
(0 0 39.7297)
(0 0 39.7297)
(0 0 39.7297)
(0 0 39.7297)
(0 0 39.7296)
(0 0 39.7296)
(0 0 39.7296)
(0 0 39.7295)
(0 0 39.7294)
(0 0 39.7294)
(0 0 39.7292)
(0 0 39.7291)
(0 0 39.7289)
(0 0 39.7285)
(0 0 39.7279)
(0 0 39.7271)
(0 0 39.727)
(0 0 39.7252)
(0 0 39.7123)
(0 0 39.7048)
(0 0 39.7593)
(0 0 39.6906)
(0 0 39.4346)
(0 0 40.4399)
(0 0 39.8581)
(0 0 24.7611)
(0 0 25.586)
(0 0 28.4722)
(0 0 34.7741)
(0 0 36.5562)
(0 0 38.1057)
(0 0 39.9597)
(0 0 41.384)
(0 0 42.4001)
(0 0 43.1943)
(0 0 43.8355)
(0 0 44.3443)
(0 0 44.7442)
(0 0 45.0564)
(0 0 45.2999)
(0 0 45.4875)
(0 0 45.631)
(0 0 45.7395)
(0 0 45.8207)
(0 0 45.881)
(0 0 45.9252)
(0 0 45.9574)
(0 0 45.9806)
(0 0 45.9973)
(0 0 46.009)
(0 0 46.0173)
(0 0 46.0231)
(0 0 46.0272)
(0 0 46.03)
(0 0 46.0319)
(0 0 46.0332)
(0 0 46.0341)
(0 0 46.0346)
(0 0 46.035)
(0 0 46.0353)
(0 0 46.0355)
(0 0 46.0356)
(0 0 46.0357)
(0 0 46.0357)
(0 0 46.0358)
(0 0 46.0358)
(0 0 46.0358)
(0 0 46.0358)
(0 0 46.0358)
(0 0 46.0358)
(0 0 46.0358)
(0 0 46.0358)
(0 0 46.0358)
(0 0 46.0358)
(0 0 46.0358)
(0 0 46.0358)
(0 0 46.0358)
(0 0 46.0358)
(0 0 46.0358)
(0 0 46.0358)
(0 0 46.0358)
(0 0 46.0358)
(0 0 46.0358)
(0 0 46.0358)
(0 0 46.0358)
(0 0 46.0358)
(0 0 46.0358)
(0 0 46.0358)
(0 0 46.0358)
(0 0 46.0358)
(0 0 46.0358)
(0 0 46.0358)
(0 0 46.0358)
(0 0 46.0358)
(0 0 46.0358)
(0 0 46.0358)
(0 0 46.0358)
(0 0 46.0358)
(0 0 46.0358)
(0 0 46.0358)
(0 0 46.0358)
(0 0 46.0357)
(0 0 46.0357)
(0 0 46.0357)
(0 0 46.0356)
(0 0 46.0356)
(0 0 46.0355)
(0 0 46.0354)
(0 0 46.0352)
(0 0 46.035)
(0 0 46.0347)
(0 0 46.0343)
(0 0 46.0338)
(0 0 46.0331)
(0 0 46.032)
(0 0 46.0305)
(0 0 46.0294)
(0 0 46.0261)
(0 0 46.0105)
(0 0 45.9989)
(0 0 46.0469)
(0 0 45.9613)
(0 0 45.6666)
(0 0 46.675)
(0 0 45.738)
(0 0 24.7496)
(0 0 25.4606)
(0 0 28.4796)
(0 0 35.1005)
(0 0 37.2944)
(0 0 39.3472)
(0 0 41.7502)
(0 0 43.7031)
(0 0 45.1993)
(0 0 46.4143)
(0 0 47.4114)
(0 0 48.2128)
(0 0 48.8473)
(0 0 49.3443)
(0 0 49.7306)
(0 0 50.0274)
(0 0 50.2531)
(0 0 50.4228)
(0 0 50.5492)
(0 0 50.6424)
(0 0 50.7104)
(0 0 50.7597)
(0 0 50.7951)
(0 0 50.8204)
(0 0 50.8382)
(0 0 50.8507)
(0 0 50.8594)
(0 0 50.8655)
(0 0 50.8696)
(0 0 50.8725)
(0 0 50.8744)
(0 0 50.8757)
(0 0 50.8766)
(0 0 50.8772)
(0 0 50.8776)
(0 0 50.8778)
(0 0 50.878)
(0 0 50.8781)
(0 0 50.8782)
(0 0 50.8782)
(0 0 50.8783)
(0 0 50.8783)
(0 0 50.8783)
(0 0 50.8783)
(0 0 50.8783)
(0 0 50.8783)
(0 0 50.8783)
(0 0 50.8783)
(0 0 50.8783)
(0 0 50.8783)
(0 0 50.8783)
(0 0 50.8783)
(0 0 50.8783)
(0 0 50.8783)
(0 0 50.8783)
(0 0 50.8783)
(0 0 50.8783)
(0 0 50.8783)
(0 0 50.8783)
(0 0 50.8783)
(0 0 50.8783)
(0 0 50.8783)
(0 0 50.8783)
(0 0 50.8783)
(0 0 50.8783)
(0 0 50.8783)
(0 0 50.8783)
(0 0 50.8783)
(0 0 50.8783)
(0 0 50.8783)
(0 0 50.8783)
(0 0 50.8783)
(0 0 50.8783)
(0 0 50.8783)
(0 0 50.8783)
(0 0 50.8782)
(0 0 50.8782)
(0 0 50.8782)
(0 0 50.8781)
(0 0 50.878)
(0 0 50.8779)
(0 0 50.8778)
(0 0 50.8776)
(0 0 50.8774)
(0 0 50.8771)
(0 0 50.8766)
(0 0 50.8761)
(0 0 50.8753)
(0 0 50.8742)
(0 0 50.8726)
(0 0 50.8705)
(0 0 50.8685)
(0 0 50.8638)
(0 0 50.8457)
(0 0 50.8305)
(0 0 50.8718)
(0 0 50.7693)
(0 0 50.4327)
(0 0 51.4341)
(0 0 50.0986)
(0 0 24.6836)
(0 0 25.1871)
(0 0 28.1773)
(0 0 34.9333)
(0 0 37.3857)
(0 0 39.8103)
(0 0 42.6513)
(0 0 45.0477)
(0 0 46.9598)
(0 0 48.547)
(0 0 49.8635)
(0 0 50.9298)
(0 0 51.778)
(0 0 52.4439)
(0 0 52.9612)
(0 0 53.3581)
(0 0 53.6592)
(0 0 53.8852)
(0 0 54.053)
(0 0 54.1764)
(0 0 54.2664)
(0 0 54.3314)
(0 0 54.3779)
(0 0 54.411)
(0 0 54.4344)
(0 0 54.4508)
(0 0 54.4622)
(0 0 54.47)
(0 0 54.4755)
(0 0 54.4792)
(0 0 54.4817)
(0 0 54.4834)
(0 0 54.4845)
(0 0 54.4853)
(0 0 54.4858)
(0 0 54.4861)
(0 0 54.4863)
(0 0 54.4865)
(0 0 54.4866)
(0 0 54.4867)
(0 0 54.4867)
(0 0 54.4867)
(0 0 54.4867)
(0 0 54.4868)
(0 0 54.4868)
(0 0 54.4868)
(0 0 54.4868)
(0 0 54.4868)
(0 0 54.4868)
(0 0 54.4868)
(0 0 54.4868)
(0 0 54.4868)
(0 0 54.4868)
(0 0 54.4868)
(0 0 54.4868)
(0 0 54.4868)
(0 0 54.4868)
(0 0 54.4868)
(0 0 54.4868)
(0 0 54.4868)
(0 0 54.4868)
(0 0 54.4868)
(0 0 54.4868)
(0 0 54.4868)
(0 0 54.4868)
(0 0 54.4868)
(0 0 54.4868)
(0 0 54.4868)
(0 0 54.4868)
(0 0 54.4868)
(0 0 54.4867)
(0 0 54.4867)
(0 0 54.4867)
(0 0 54.4867)
(0 0 54.4867)
(0 0 54.4867)
(0 0 54.4866)
(0 0 54.4866)
(0 0 54.4865)
(0 0 54.4864)
(0 0 54.4863)
(0 0 54.4861)
(0 0 54.4859)
(0 0 54.4855)
(0 0 54.4851)
(0 0 54.4845)
(0 0 54.4838)
(0 0 54.4828)
(0 0 54.4814)
(0 0 54.4794)
(0 0 54.4767)
(0 0 54.474)
(0 0 54.468)
(0 0 54.4478)
(0 0 54.4293)
(0 0 54.4643)
(0 0 54.3454)
(0 0 53.9668)
(0 0 54.9589)
(0 0 53.2609)
(0 0 24.5943)
(0 0 24.8558)
(0 0 27.7271)
(0 0 34.4963)
(0 0 37.0896)
(0 0 39.774)
(0 0 42.9517)
(0 0 45.7067)
(0 0 47.9659)
(0 0 49.87)
(0 0 51.462)
(0 0 52.7588)
(0 0 53.7939)
(0 0 54.6082)
(0 0 55.2407)
(0 0 55.7258)
(0 0 56.0935)
(0 0 56.369)
(0 0 56.5734)
(0 0 56.7234)
(0 0 56.8327)
(0 0 56.9115)
(0 0 56.9679)
(0 0 57.0079)
(0 0 57.0362)
(0 0 57.0559)
(0 0 57.0697)
(0 0 57.0792)
(0 0 57.0857)
(0 0 57.0902)
(0 0 57.0932)
(0 0 57.0952)
(0 0 57.0966)
(0 0 57.0975)
(0 0 57.0981)
(0 0 57.0985)
(0 0 57.0988)
(0 0 57.099)
(0 0 57.0991)
(0 0 57.0992)
(0 0 57.0992)
(0 0 57.0992)
(0 0 57.0993)
(0 0 57.0993)
(0 0 57.0993)
(0 0 57.0993)
(0 0 57.0993)
(0 0 57.0993)
(0 0 57.0993)
(0 0 57.0993)
(0 0 57.0993)
(0 0 57.0993)
(0 0 57.0993)
(0 0 57.0993)
(0 0 57.0993)
(0 0 57.0993)
(0 0 57.0993)
(0 0 57.0993)
(0 0 57.0993)
(0 0 57.0993)
(0 0 57.0993)
(0 0 57.0993)
(0 0 57.0993)
(0 0 57.0993)
(0 0 57.0993)
(0 0 57.0993)
(0 0 57.0993)
(0 0 57.0993)
(0 0 57.0993)
(0 0 57.0993)
(0 0 57.0993)
(0 0 57.0993)
(0 0 57.0993)
(0 0 57.0992)
(0 0 57.0992)
(0 0 57.0992)
(0 0 57.0991)
(0 0 57.0991)
(0 0 57.099)
(0 0 57.0989)
(0 0 57.0987)
(0 0 57.0985)
(0 0 57.0982)
(0 0 57.0978)
(0 0 57.0973)
(0 0 57.0966)
(0 0 57.0957)
(0 0 57.0945)
(0 0 57.0928)
(0 0 57.0904)
(0 0 57.0873)
(0 0 57.0839)
(0 0 57.0769)
(0 0 57.0548)
(0 0 57.0335)
(0 0 57.0629)
(0 0 56.9289)
(0 0 56.5118)
(0 0 57.4963)
(0 0 55.5073)
(0 0 24.5029)
(0 0 24.5311)
(0 0 27.2504)
(0 0 33.9646)
(0 0 36.6191)
(0 0 39.4743)
(0 0 42.8997)
(0 0 45.9321)
(0 0 48.4678)
(0 0 50.629)
(0 0 52.4472)
(0 0 53.9346)
(0 0 55.1252)
(0 0 56.0631)
(0 0 56.792)
(0 0 57.3509)
(0 0 57.7742)
(0 0 58.0912)
(0 0 58.3262)
(0 0 58.4986)
(0 0 58.6239)
(0 0 58.7143)
(0 0 58.779)
(0 0 58.8248)
(0 0 58.8571)
(0 0 58.8797)
(0 0 58.8954)
(0 0 58.9063)
(0 0 58.9137)
(0 0 58.9188)
(0 0 58.9223)
(0 0 58.9246)
(0 0 58.9262)
(0 0 58.9272)
(0 0 58.9279)
(0 0 58.9284)
(0 0 58.9287)
(0 0 58.9289)
(0 0 58.929)
(0 0 58.9291)
(0 0 58.9291)
(0 0 58.9292)
(0 0 58.9292)
(0 0 58.9292)
(0 0 58.9292)
(0 0 58.9292)
(0 0 58.9292)
(0 0 58.9292)
(0 0 58.9292)
(0 0 58.9292)
(0 0 58.9292)
(0 0 58.9292)
(0 0 58.9292)
(0 0 58.9292)
(0 0 58.9292)
(0 0 58.9292)
(0 0 58.9292)
(0 0 58.9292)
(0 0 58.9292)
(0 0 58.9292)
(0 0 58.9292)
(0 0 58.9292)
(0 0 58.9292)
(0 0 58.9292)
(0 0 58.9292)
(0 0 58.9292)
(0 0 58.9292)
(0 0 58.9292)
(0 0 58.9292)
(0 0 58.9292)
(0 0 58.9292)
(0 0 58.9292)
(0 0 58.9292)
(0 0 58.9292)
(0 0 58.9291)
(0 0 58.9291)
(0 0 58.9291)
(0 0 58.929)
(0 0 58.9289)
(0 0 58.9288)
(0 0 58.9286)
(0 0 58.9283)
(0 0 58.928)
(0 0 58.9275)
(0 0 58.9269)
(0 0 58.9261)
(0 0 58.9251)
(0 0 58.9237)
(0 0 58.9218)
(0 0 58.9191)
(0 0 58.9156)
(0 0 58.9117)
(0 0 58.9038)
(0 0 58.8802)
(0 0 58.8567)
(0 0 58.8813)
(0 0 58.7342)
(0 0 58.2844)
(0 0 59.2644)
(0 0 57.0625)
(0 0 24.4233)
(0 0 24.256)
(0 0 26.8319)
(0 0 33.4665)
(0 0 36.1355)
(0 0 39.094)
(0 0 42.6922)
(0 0 45.9263)
(0 0 48.6682)
(0 0 51.024)
(0 0 53.0151)
(0 0 54.6492)
(0 0 55.9598)
(0 0 56.9936)
(0 0 57.7971)
(0 0 58.4133)
(0 0 58.8799)
(0 0 59.2291)
(0 0 59.4878)
(0 0 59.6776)
(0 0 59.8155)
(0 0 59.9149)
(0 0 59.9859)
(0 0 60.0363)
(0 0 60.0717)
(0 0 60.0965)
(0 0 60.1138)
(0 0 60.1257)
(0 0 60.1338)
(0 0 60.1394)
(0 0 60.1432)
(0 0 60.1457)
(0 0 60.1474)
(0 0 60.1486)
(0 0 60.1493)
(0 0 60.1498)
(0 0 60.1502)
(0 0 60.1504)
(0 0 60.1505)
(0 0 60.1506)
(0 0 60.1507)
(0 0 60.1507)
(0 0 60.1508)
(0 0 60.1508)
(0 0 60.1508)
(0 0 60.1508)
(0 0 60.1508)
(0 0 60.1508)
(0 0 60.1508)
(0 0 60.1508)
(0 0 60.1508)
(0 0 60.1508)
(0 0 60.1508)
(0 0 60.1508)
(0 0 60.1508)
(0 0 60.1508)
(0 0 60.1508)
(0 0 60.1508)
(0 0 60.1508)
(0 0 60.1508)
(0 0 60.1508)
(0 0 60.1508)
(0 0 60.1508)
(0 0 60.1508)
(0 0 60.1508)
(0 0 60.1508)
(0 0 60.1508)
(0 0 60.1508)
(0 0 60.1508)
(0 0 60.1508)
(0 0 60.1508)
(0 0 60.1508)
(0 0 60.1508)
(0 0 60.1507)
(0 0 60.1507)
(0 0 60.1507)
(0 0 60.1506)
(0 0 60.1505)
(0 0 60.1504)
(0 0 60.1503)
(0 0 60.1501)
(0 0 60.1498)
(0 0 60.1494)
(0 0 60.1489)
(0 0 60.1483)
(0 0 60.1474)
(0 0 60.1463)
(0 0 60.1448)
(0 0 60.1427)
(0 0 60.1398)
(0 0 60.136)
(0 0 60.1317)
(0 0 60.1232)
(0 0 60.0984)
(0 0 60.0731)
(0 0 60.094)
(0 0 59.9366)
(0 0 59.4615)
(0 0 60.4396)
(0 0 58.0947)
(0 0 24.364)
(0 0 24.0575)
(0 0 26.5269)
(0 0 33.0893)
(0 0 35.7518)
(0 0 38.767)
(0 0 42.4739)
(0 0 45.8391)
(0 0 48.7177)
(0 0 51.2042)
(0 0 53.3124)
(0 0 55.0461)
(0 0 56.4386)
(0 0 57.5377)
(0 0 58.3924)
(0 0 59.0477)
(0 0 59.5439)
(0 0 59.9152)
(0 0 60.1902)
(0 0 60.3918)
(0 0 60.5383)
(0 0 60.6438)
(0 0 60.7192)
(0 0 60.7726)
(0 0 60.8102)
(0 0 60.8366)
(0 0 60.8548)
(0 0 60.8674)
(0 0 60.8761)
(0 0 60.882)
(0 0 60.886)
(0 0 60.8887)
(0 0 60.8905)
(0 0 60.8917)
(0 0 60.8926)
(0 0 60.8931)
(0 0 60.8934)
(0 0 60.8937)
(0 0 60.8938)
(0 0 60.8939)
(0 0 60.894)
(0 0 60.894)
(0 0 60.8941)
(0 0 60.8941)
(0 0 60.8941)
(0 0 60.8941)
(0 0 60.8941)
(0 0 60.8941)
(0 0 60.8941)
(0 0 60.8941)
(0 0 60.8941)
(0 0 60.8941)
(0 0 60.8941)
(0 0 60.8941)
(0 0 60.8941)
(0 0 60.8941)
(0 0 60.8941)
(0 0 60.8941)
(0 0 60.8941)
(0 0 60.8941)
(0 0 60.8941)
(0 0 60.8941)
(0 0 60.8941)
(0 0 60.8941)
(0 0 60.8941)
(0 0 60.8941)
(0 0 60.8941)
(0 0 60.8941)
(0 0 60.8941)
(0 0 60.8941)
(0 0 60.8941)
(0 0 60.8941)
(0 0 60.8941)
(0 0 60.894)
(0 0 60.894)
(0 0 60.894)
(0 0 60.8939)
(0 0 60.8938)
(0 0 60.8937)
(0 0 60.8936)
(0 0 60.8933)
(0 0 60.8931)
(0 0 60.8927)
(0 0 60.8921)
(0 0 60.8914)
(0 0 60.8905)
(0 0 60.8893)
(0 0 60.8877)
(0 0 60.8855)
(0 0 60.8824)
(0 0 60.8784)
(0 0 60.8739)
(0 0 60.865)
(0 0 60.8394)
(0 0 60.8129)
(0 0 60.8313)
(0 0 60.6668)
(0 0 60.1744)
(0 0 61.1524)
(0 0 58.7214)
(0 0 24.3319)
(0 0 23.9538)
(0 0 26.3677)
(0 0 32.8879)
(0 0 35.5419)
(0 0 38.5821)
(0 0 42.3414)
(0 0 45.7711)
(0 0 48.7178)
(0 0 51.2699)
(0 0 53.4371)
(0 0 55.2211)
(0 0 56.6551)
(0 0 57.7873)
(0 0 58.6678)
(0 0 59.343)
(0 0 59.8542)
(0 0 60.2367)
(0 0 60.5199)
(0 0 60.7276)
(0 0 60.8784)
(0 0 60.987)
(0 0 61.0646)
(0 0 61.1196)
(0 0 61.1584)
(0 0 61.1854)
(0 0 61.2042)
(0 0 61.2172)
(0 0 61.2261)
(0 0 61.2322)
(0 0 61.2363)
(0 0 61.2391)
(0 0 61.241)
(0 0 61.2422)
(0 0 61.243)
(0 0 61.2436)
(0 0 61.244)
(0 0 61.2442)
(0 0 61.2444)
(0 0 61.2445)
(0 0 61.2445)
(0 0 61.2446)
(0 0 61.2446)
(0 0 61.2446)
(0 0 61.2446)
(0 0 61.2446)
(0 0 61.2446)
(0 0 61.2446)
(0 0 61.2446)
(0 0 61.2446)
(0 0 61.2446)
(0 0 61.2446)
(0 0 61.2446)
(0 0 61.2446)
(0 0 61.2446)
(0 0 61.2446)
(0 0 61.2446)
(0 0 61.2446)
(0 0 61.2446)
(0 0 61.2446)
(0 0 61.2446)
(0 0 61.2446)
(0 0 61.2446)
(0 0 61.2446)
(0 0 61.2446)
(0 0 61.2446)
(0 0 61.2446)
(0 0 61.2446)
(0 0 61.2446)
(0 0 61.2446)
(0 0 61.2446)
(0 0 61.2446)
(0 0 61.2446)
(0 0 61.2446)
(0 0 61.2446)
(0 0 61.2445)
(0 0 61.2445)
(0 0 61.2444)
(0 0 61.2443)
(0 0 61.2441)
(0 0 61.2439)
(0 0 61.2436)
(0 0 61.2432)
(0 0 61.2426)
(0 0 61.2419)
(0 0 61.2409)
(0 0 61.2397)
(0 0 61.238)
(0 0 61.2358)
(0 0 61.2327)
(0 0 61.2286)
(0 0 61.2239)
(0 0 61.2147)
(0 0 61.1888)
(0 0 61.1617)
(0 0 61.1788)
(0 0 61.0106)
(0 0 60.5097)
(0 0 61.4879)
(0 0 59.0169)
(0 0 24.3319)
(0 0 23.9538)
(0 0 26.3677)
(0 0 32.8879)
(0 0 35.5419)
(0 0 38.5822)
(0 0 42.3414)
(0 0 45.7712)
(0 0 48.7179)
(0 0 51.27)
(0 0 53.4371)
(0 0 55.2211)
(0 0 56.6551)
(0 0 57.7873)
(0 0 58.6678)
(0 0 59.343)
(0 0 59.8542)
(0 0 60.2367)
(0 0 60.5199)
(0 0 60.7276)
(0 0 60.8784)
(0 0 60.987)
(0 0 61.0646)
(0 0 61.1196)
(0 0 61.1584)
(0 0 61.1854)
(0 0 61.2042)
(0 0 61.2172)
(0 0 61.2261)
(0 0 61.2322)
(0 0 61.2363)
(0 0 61.2391)
(0 0 61.241)
(0 0 61.2422)
(0 0 61.243)
(0 0 61.2436)
(0 0 61.244)
(0 0 61.2442)