/*--------------------------------*- C++ -*----------------------------------*\
| =========                 |                                                 |
| \\      /  F ield         | foam-extend: Open Source CFD                    |
|  \\    /   O peration     | Version:     5.0                                |
|   \\  /    A nd           | Web:         http://www.foam-extend.org         |
|    \\/     M anipulation  |                                                 |
\*---------------------------------------------------------------------------*/
FoamFile
{
    version     2.0;
    format      ascii;
    class       volScalarField;
    location    "0.025";
    object      p;
}
// * * * * * * * * * * * * * * * * * * * * * * * * * * * * * * * * * * * * * //

dimensions      [1 -1 -2 0 0 0 0];

internalField   nonuniform List<scalar> 
4000
(
9618.32
9470.49
9410.34
9335.12
9242.13
9151.55
9064.02
8975.36
8885
8793.67
8701.64
8608.86
8515.32
8421.1
8326.28
8230.95
8135.18
8039.04
7942.62
7845.96
7749.11
7652.12
7555.02
7457.83
7360.58
7263.29
7165.95
7068.6
6971.22
6873.83
6776.43
6679.03
6581.62
6484.2
6386.79
6289.37
6191.95
6094.53
5997.11
5899.69
5802.27
5704.85
5607.43
5510
5412.58
5315.16
5217.74
5120.32
5022.9
4925.48
4828.06
4730.64
4633.21
4535.79
4438.37
4340.95
4243.53
4146.11
4048.69
3951.27
3853.84
3756.42
3659
3561.58
3464.16
3366.74
3269.32
3171.9
3074.47
2977.05
2879.63
2782.21
2684.79
2587.37
2489.95
2392.53
2295.11
2197.68
2100.26
2002.84
1905.42
1808
1710.58
1613.16
1515.75
1418.33
1320.91
1223.5
1126.1
1028.7
931.317
833.95
736.631
639.424
542.274
444.96
348.153
253.778
161.01
57.0959
9613.58
9466.98
9408.88
9333.66
9240.4
9150.13
9062.93
8974.42
8884.18
8792.97
8701.06
8608.39
8514.94
8420.79
8326.03
8230.75
8135.03
8038.93
7942.53
7845.89
7749.07
7652.09
7555
7457.82
7360.57
7263.28
7165.95
7068.59
6971.22
6873.83
6776.43
6679.03
6581.61
6484.2
6386.79
6289.37
6191.95
6094.53
5997.11
5899.69
5802.27
5704.85
5607.43
5510
5412.58
5315.16
5217.74
5120.32
5022.9
4925.48
4828.06
4730.64
4633.21
4535.79
4438.37
4340.95
4243.53
4146.11
4048.69
3951.27
3853.84
3756.42
3659
3561.58
3464.16
3366.74
3269.32
3171.9
3074.47
2977.05
2879.63
2782.21
2684.79
2587.37
2489.95
2392.53
2295.11
2197.68
2100.26
2002.84
1905.42
1808
1710.58
1613.16
1515.75
1418.33
1320.91
1223.5
1126.1
1028.7
931.321
833.956
736.639
639.44
542.31
445
348.159
253.776
161.193
57.2364
9612.84
9463.56
9408.34
9333.43
9239.44
9149.28
9062.37
8973.97
8883.78
8792.64
8700.8
8608.18
8514.78
8420.66
8325.94
8230.68
8134.97
8038.89
7942.5
7845.87
7749.05
7652.08
7554.99
7457.81
7360.57
7263.27
7165.95
7068.59
6971.22
6873.83
6776.43
6679.02
6581.61
6484.2
6386.79
6289.37
6191.95
6094.53
5997.11
5899.69
5802.27
5704.85
5607.43
5510
5412.58
5315.16
5217.74
5120.32
5022.9
4925.48
4828.06
4730.64
4633.21
4535.79
4438.37
4340.95
4243.53
4146.11
4048.69
3951.27
3853.84
3756.42
3659
3561.58
3464.16
3366.74
3269.32
3171.9
3074.47
2977.05
2879.63
2782.21
2684.79
2587.37
2489.95
2392.53
2295.11
2197.68
2100.26
2002.84
1905.42
1808
1710.58
1613.16
1515.75
1418.33
1320.92
1223.5
1126.1
1028.71
931.323
833.957
736.639
639.445
542.33
445
348.103
253.774
161.447
57.4118
9616.26
9461.92
9409.5
9334.85
9239.77
9149.49
9062.72
8974.31
8884.05
8792.86
8701
8608.36
8514.93
8420.79
8326.04
8230.76
8135.04
8038.94
7942.55
7845.91
7749.07
7652.1
7555
7457.82
7360.57
7263.28
7165.95
7068.59
6971.22
6873.83
6776.43
6679.03
6581.62
6484.2
6386.79
6289.37
6191.95
6094.53
5997.11
5899.69
5802.27
5704.85
5607.43
5510
5412.58
5315.16
5217.74
5120.32
5022.9
4925.48
4828.06
4730.64
4633.21
4535.79
4438.37
4340.95
4243.53
4146.11
4048.69
3951.27
3853.84
3756.42
3659
3561.58
3464.16
3366.74
3269.32
3171.9
3074.47
2977.05
2879.63
2782.21
2684.79
2587.37
2489.95
2392.53
2295.11
2197.68
2100.26
2002.84
1905.42
1808
1710.58
1613.16
1515.75
1418.33
1320.91
1223.5
1126.1
1028.7
931.32
833.952
736.63
639.436
542.327
444.959
347.99
253.725
161.284
57.1952
9623.2
9462.66
9412.77
9338.14
9241.61
9150.95
9064.17
8975.57
8885.08
8793.72
8701.72
8608.96
8515.43
8421.19
8326.37
8231.02
8135.24
8039.1
7942.67
7846
7749.14
7652.15
7555.04
7457.85
7360.59
7263.29
7165.96
7068.6
6971.22
6873.83
6776.43
6679.03
6581.62
6484.2
6386.79
6289.37
6191.95
6094.53
5997.11
5899.69
5802.27
5704.85
5607.43
5510
5412.58
5315.16
5217.74
5120.32
5022.9
4925.48
4828.06
4730.64
4633.21
4535.79
4438.37
4340.95
4243.53
4146.11
4048.69
3951.27
3853.84
3756.42
3659
3561.58
3464.16
3366.74
3269.32
3171.9
3074.47
2977.05
2879.63
2782.21
2684.79
2587.37
2489.95
2392.53
2295.11
2197.68
2100.26
2002.84
1905.42
1808
1710.58
1613.16
1515.75
1418.33
1320.91
1223.5
1126.1
1028.7
931.315
833.942
736.611
639.413
542.304
444.881
347.822
253.601
160.426
56.3496
9632.76
9465.73
9418
9343.16
9244.91
9153.68
9066.69
8977.74
8886.87
8795.21
8702.97
8609.99
8516.26
8421.87
8326.91
8231.45
8135.57
8039.35
7942.86
7846.14
7749.25
7652.23
7555.1
7457.89
7360.63
7263.32
7165.98
7068.61
6971.23
6873.84
6776.44
6679.03
6581.62
6484.2
6386.79
6289.37
6191.95
6094.53
5997.11
5899.69
5802.27
5704.85
5607.43
5510
5412.58
5315.16
5217.74
5120.32
5022.9
4925.48
4828.06
4730.64
4633.21
4535.79
4438.37
4340.95
4243.53
4146.11
4048.69
3951.27
3853.84
3756.42
3659
3561.58
3464.16
3366.74
3269.32
3171.9
3074.47
2977.05
2879.63
2782.21
2684.79
2587.37
2489.95
2392.53
2295.11
2197.68
2100.26
2002.84
1905.42
1808
1710.58
1613.16
1515.74
1418.33
1320.91
1223.5
1126.09
1028.69
931.306
833.927
736.585
639.377
542.261
444.772
347.609
253.402
158.94
54.9506
9643.96
9470.73
9424.83
9349.61
9249.51
9157.53
9070.19
8980.74
8889.36
8797.28
8704.69
8611.4
8517.41
8422.79
8327.63
8232.02
8136.01
8039.69
7943.11
7846.33
7749.39
7652.33
7555.17
7457.95
7360.67
7263.35
7166
7068.63
6971.24
6873.85
6776.44
6679.03
6581.62
6484.2
6386.79
6289.37
6191.95
6094.53
5997.11
5899.69
5802.27
5704.85
5607.43
5510
5412.58
5315.16
5217.74
5120.32
5022.9
4925.48
4828.06
4730.64
4633.21
4535.79
4438.37
4340.95
4243.53
4146.11
4048.69
3951.27
3853.84
3756.42
3659
3561.58
3464.16
3366.74
3269.32
3171.9
3074.47
2977.05
2879.63
2782.21
2684.79
2587.37
2489.95
2392.53
2295.11
2197.68
2100.26
2002.84
1905.42
1808
1710.58
1613.16
1515.74
1418.33
1320.91
1223.5
1126.09
1028.69
931.294
833.907
736.551
639.33
542.199
444.636
347.365
253.147
157.126
53.2783
9655.82
9477.06
9432.73
9357.09
9255.12
9162.31
9074.52
8984.46
8892.46
8799.86
8706.82
8613.15
8518.82
8423.92
8328.52
8232.71
8136.55
8040.1
7943.42
7846.57
7749.57
7652.46
7555.27
7458.01
7360.71
7263.38
7166.02
7068.64
6971.25
6873.85
6776.45
6679.04
6581.62
6484.21
6386.79
6289.37
6191.95
6094.53
5997.11
5899.69
5802.27
5704.85
5607.43
5510
5412.58
5315.16
5217.74
5120.32
5022.9
4925.48
4828.06
4730.64
4633.21
4535.79
4438.37
4340.95
4243.53
4146.11
4048.69
3951.27
3853.84
3756.42
3659
3561.58
3464.16
3366.74
3269.32
3171.9
3074.47
2977.05
2879.63
2782.21
2684.79
2587.37
2489.95
2392.53
2295.1
2197.68
2100.26
2002.84
1905.42
1808
1710.58
1613.16
1515.74
1418.32
1320.91
1223.49
1126.08
1028.68
931.28
833.884
736.511
639.273
542.121
444.478
347.101
252.861
155.32
51.6419
9667.54
9484.1
9441.14
9365.14
9261.44
9167.77
9079.46
8988.73
8896.04
8802.85
8709.29
8615.17
8520.46
8425.22
8329.55
8233.51
8137.16
8040.57
7943.78
7846.83
7749.76
7652.6
7555.37
7458.09
7360.77
7263.42
7166.05
7068.66
6971.27
6873.86
6776.45
6679.04
6581.63
6484.21
6386.79
6289.37
6191.95
6094.53
5997.11
5899.69
5802.27
5704.85
5607.43
5510
5412.58
5315.16
5217.74
5120.32
5022.9
4925.48
4828.06
4730.64
4633.21
4535.79
4438.37
4340.95
4243.53
4146.11
4048.69
3951.27
3853.84
3756.42
3659
3561.58
3464.16
3366.74
3269.32
3171.9
3074.47
2977.05
2879.63
2782.21
2684.79
2587.37
2489.95
2392.53
2295.1
2197.68
2100.26
2002.84
1905.42
1808
1710.58
1613.16
1515.74
1418.32
1320.9
1223.49
1126.07
1028.67
931.264
833.857
736.467
639.208
542.029
444.305
346.83
252.56
153.721
50.2179
9678.5
9491.31
9449.56
9373.33
9268.12
9173.62
9084.79
8993.38
8899.96
8806.12
8712.01
8617.39
8522.25
8426.65
8330.67
8234.38
8137.84
8041.08
7944.16
7847.12
7749.97
7652.76
7555.48
7458.17
7360.83
7263.46
7166.08
7068.68
6971.28
6873.87
6776.46
6679.05
6581.63
6484.21
6386.79
6289.37
6191.95
6094.53
5997.11
5899.69
5802.27
5704.85
5607.43
5510
5412.58
5315.16
5217.74
5120.32
5022.9
4925.48
4828.06
4730.64
4633.21
4535.79
4438.37
4340.95
4243.53
4146.11
4048.69
3951.27
3853.84
3756.42
3659
3561.58
3464.16
3366.74
3269.32
3171.9
3074.47
2977.05
2879.63
2782.21
2684.79
2587.37
2489.95
2392.53
2295.1
2197.68
2100.26
2002.84
1905.42
1808
1710.58
1613.16
1515.74
1418.32
1320.9
1223.48
1126.07
1028.65
931.246
833.827
736.419
639.138
541.927
444.121
346.56
252.247
152.284
48.9586
9688.37
9498.27
9457.62
9381.28
9274.84
9179.62
9090.3
8998.2
8904.07
8809.58
8714.88
8619.74
8524.14
8428.16
8331.86
8235.3
8138.54
8041.62
7944.57
7847.42
7750.2
7652.92
7555.6
7458.26
7360.89
7263.5
7166.11
7068.71
6971.3
6873.88
6776.47
6679.05
6581.63
6484.21
6386.79
6289.37
6191.95
6094.53
5997.11
5899.69
5802.27
5704.85
5607.43
5510
5412.58
5315.16
5217.74
5120.32
5022.9
4925.48
4828.06
4730.64
4633.21
4535.79
4438.37
4340.95
4243.53
4146.11
4048.69
3951.27
3853.84
3756.42
3659
3561.58
3464.16
3366.74
3269.32
3171.9
3074.47
2977.05
2879.63
2782.21
2684.79
2587.37
2489.95
2392.53
2295.1
2197.68
2100.26
2002.84
1905.42
1808
1710.58
1613.16
1515.74
1418.32
1320.9
1223.48
1126.06
1028.64
931.227
833.797
736.37
639.065
541.819
443.932
346.293
251.923
150.942
47.8003
9696.94
9504.7
9465.03
9388.74
9281.33
9185.52
9095.75
9003.04
8908.22
8813.08
8717.79
8622.13
8526.07
8429.69
8333.06
8236.24
8139.26
8042.16
7944.98
7847.73
7750.42
7653.09
7555.72
7458.34
7360.95
7263.55
7166.14
7068.73
6971.31
6873.89
6776.48
6679.06
6581.64
6484.22
6386.79
6289.37
6191.95
6094.53
5997.11
5899.69
5802.27
5704.85
5607.43
5510
5412.58
5315.16
5217.74
5120.32
5022.9
4925.48
4828.06
4730.64
4633.21
4535.79
4438.37
4340.95
4243.53
4146.11
4048.69
3951.27
3853.84
3756.42
3659
3561.58
3464.16
3366.74
3269.32
3171.9
3074.47
2977.05
2879.63
2782.21
2684.79
2587.37
2489.95
2392.53
2295.1
2197.68
2100.26
2002.84
1905.42
1808
1710.58
1613.16
1515.73
1418.31
1320.89
1223.47
1126.05
1028.63
931.208
833.766
736.32
638.991
541.708
443.743
346.035
251.59
149.656
46.7059
9704.21
9510.44
9471.63
9395.5
9287.39
9191.12
9100.99
9007.73
8912.26
8816.51
8720.66
8624.49
8527.98
8431.21
8334.25
8237.16
8139.97
8042.7
7945.38
7848.03
7750.65
7653.25
7555.84
7458.43
7361.01
7263.59
7166.17
7068.75
6971.33
6873.9
6776.48
6679.06
6581.64
6484.22
6386.8
6289.38
6191.95
6094.53
5997.11
5899.69
5802.27
5704.85
5607.43
5510
5412.58
5315.16
5217.74
5120.32
5022.9
4925.48
4828.06
4730.63
4633.21
4535.79
4438.37
4340.95
4243.53
4146.11
4048.69
3951.27
3853.84
3756.42
3659
3561.58
3464.16
3366.74
3269.32
3171.9
3074.47
2977.05
2879.63
2782.21
2684.79
2587.37
2489.95
2392.53
2295.1
2197.68
2100.26
2002.84
1905.42
1808
1710.58
1613.15
1515.73
1418.31
1320.89
1223.47
1126.04
1028.62
931.189
833.735
736.271
638.919
541.597
443.559
345.787
251.257
148.418
45.664
9710.2
9515.39
9477.34
9401.45
9292.86
9196.26
9105.84
9012.11
8916.08
8819.77
8723.39
8626.73
8529.79
8432.66
8335.39
8238.05
8140.65
8043.22
7945.77
7848.31
7750.86
7653.4
7555.95
7458.51
7361.07
7263.63
7166.2
7068.77
6971.34
6873.91
6776.49
6679.07
6581.64
6484.22
6386.8
6289.38
6191.95
6094.53
5997.11
5899.69
5802.27
5704.85
5607.43
5510
5412.58
5315.16
5217.74
5120.32
5022.9
4925.48
4828.06
4730.63
4633.21
4535.79
4438.37
4340.95
4243.53
4146.11
4048.69
3951.27
3853.84
3756.42
3659
3561.58
3464.16
3366.74
3269.32
3171.9
3074.47
2977.05
2879.63
2782.21
2684.79
2587.37
2489.95
2392.53
2295.1
2197.68
2100.26
2002.84
1905.42
1808
1710.58
1613.15
1515.73
1418.31
1320.89
1223.46
1126.03
1028.61
931.171
833.706
736.225
638.85
541.49
443.384
345.555
250.934
147.253
44.6895
9715.03
9519.55
9482.13
9406.52
9297.65
9200.82
9110.2
9016.08
8919.56
8822.75
8725.9
8628.8
8531.47
8433.99
8336.44
8238.86
8141.27
8043.69
7946.12
7848.58
7751.05
7653.55
7556.06
7458.58
7361.12
7263.67
7166.23
7068.79
6971.35
6873.92
6776.5
6679.07
6581.65
6484.22
6386.8
6289.38
6191.95
6094.53
5997.11
5899.69
5802.27
5704.85
5607.43
5510
5412.58
5315.16
5217.74
5120.32
5022.9
4925.48
4828.06
4730.63
4633.21
4535.79
4438.37
4340.95
4243.53
4146.11
4048.69
3951.27
3853.84
3756.42
3659
3561.58
3464.16
3366.74
3269.32
3171.9
3074.47
2977.05
2879.63
2782.21
2684.79
2587.37
2489.95
2392.53
2295.1
2197.68
2100.26
2002.84
1905.42
1808
1710.57
1613.15
1515.73
1418.31
1320.88
1223.46
1126.03
1028.6
931.154
833.68
736.183
638.787
541.392
443.224
345.344
250.634
146.197
43.8081
9718.83
9522.93
9486.02
9410.69
9301.67
9204.71
9113.95
9019.53
8922.61
8825.37
8728.11
8630.63
8532.95
8435.17
8337.37
8239.58
8141.82
8044.11
7946.44
7848.81
7751.23
7653.67
7556.15
7458.65
7361.17
7263.7
7166.25
7068.8
6971.37
6873.93
6776.5
6679.07
6581.65
6484.22
6386.8
6289.38
6191.96
6094.53
5997.11
5899.69
5802.27
5704.85
5607.43
5510
5412.58
5315.16
5217.74
5120.32
5022.9
4925.48
4828.06
4730.63
4633.21
4535.79
4438.37
4340.95
4243.53
4146.11
4048.69
3951.27
3853.84
3756.42
3659
3561.58
3464.16
3366.74
3269.32
3171.9
3074.47
2977.05
2879.63
2782.21
2684.79
2587.37
2489.95
2392.53
2295.1
2197.68
2100.26
2002.84
1905.42
1808
1710.57
1613.15
1515.73
1418.3
1320.88
1223.45
1126.02
1028.59
931.14
833.657
736.147
638.732
541.305
443.082
345.159
250.369
145.28
43.0453
9721.69
9525.57
9489.06
9413.98
9304.9
9207.88
9117.02
9022.37
8925.14
8827.55
8729.95
8632.15
8534.19
8436.16
8338.15
8240.18
8142.29
8044.46
7946.7
7849.01
7751.37
7653.78
7556.23
7458.71
7361.21
7263.73
7166.27
7068.82
6971.38
6873.94
6776.51
6679.08
6581.65
6484.23
6386.8
6289.38
6191.96
6094.53
5997.11
5899.69
5802.27
5704.85
5607.43
5510
5412.58
5315.16
5217.74
5120.32
5022.9
4925.48
4828.06
4730.63
4633.21
4535.79
4438.37
4340.95
4243.53
4146.11
4048.69
3951.27
3853.84
3756.42
3659
3561.58
3464.16
3366.74
3269.32
3171.9
3074.47
2977.05
2879.63
2782.21
2684.79
2587.37
2489.95
2392.53
2295.1
2197.68
2100.26
2002.84
1905.42
1808
1710.57
1613.15
1515.73
1418.3
1320.88
1223.45
1126.02
1028.58
931.128
833.637
736.116
638.686
541.231
442.964
345.005
250.149
144.529
42.42
9723.74
9527.51
9491.28
9416.42
9307.33
9210.28
9119.37
9024.56
8927.08
8829.24
8731.38
8633.34
8535.15
8436.93
8338.75
8240.65
8142.65
8044.73
7946.91
7849.16
7751.48
7653.86
7556.29
7458.75
7361.24
7263.75
7166.28
7068.83
6971.38
6873.94
6776.51
6679.08
6581.65
6484.23
6386.8
6289.38
6191.96
6094.53
5997.11
5899.69
5802.27
5704.85
5607.43
5510
5412.58
5315.16
5217.74
5120.32
5022.9
4925.48
4828.06
4730.63
4633.21
4535.79
4438.37
4340.95
4243.53
4146.11
4048.69
3951.27
3853.84
3756.42
3659
3561.58
3464.16
3366.74
3269.32
3171.9
3074.47
2977.05
2879.63
2782.21
2684.79
2587.37
2489.95
2392.53
2295.1
2197.68
2100.26
2002.84
1905.42
1808
1710.57
1613.15
1515.73
1418.3
1320.87
1223.44
1126.01
1028.57
931.118
833.622
736.092
638.65
541.174
442.872
344.886
249.979
143.956
41.9442
9725.06
9528.77
9492.74
9418.02
9308.94
9211.89
9120.95
9026.04
8928.41
8830.39
8732.36
8634.15
8535.81
8437.45
8339.17
8240.97
8142.89
8044.92
7947.05
7849.27
7751.56
7653.92
7556.33
7458.78
7361.26
7263.77
7166.3
7068.84
6971.39
6873.95
6776.51
6679.08
6581.65
6484.23
6386.8
6289.38
6191.96
6094.53
5997.11
5899.69
5802.27
5704.85
5607.43
5510
5412.58
5315.16
5217.74
5120.32
5022.9
4925.48
4828.06
4730.63
4633.21
4535.79
4438.37
4340.95
4243.53
4146.11
4048.69
3951.26
3853.84
3756.42
3659
3561.58
3464.16
3366.74
3269.32
3171.9
3074.47
2977.05
2879.63
2782.21
2684.79
2587.37
2489.95
2392.52
2295.1
2197.68
2100.26
2002.84
1905.42
1807.99
1710.57
1613.15
1515.73
1418.3
1320.87
1223.44
1126.01
1028.57
931.112
833.612
736.076
638.625
541.134
442.809
344.805
249.863
143.572
41.6247
9725.7
9529.4
9493.46
9418.81
9309.74
9212.69
9121.74
9026.78
8929.08
8830.97
8732.85
8634.56
8536.14
8437.72
8339.38
8241.14
8143.02
8045.01
7947.12
7849.32
7751.6
7653.95
7556.35
7458.79
7361.27
7263.78
7166.3
7068.84
6971.39
6873.95
6776.51
6679.08
6581.65
6484.23
6386.8
6289.38
6191.96
6094.53
5997.11
5899.69
5802.27
5704.85
5607.43
5510
5412.58
5315.16
5217.74
5120.32
5022.9
4925.48
4828.06
4730.63
4633.21
4535.79
4438.37
4340.95
4243.53
4146.11
4048.69
3951.26
3853.84
3756.42
3659
3561.58
3464.16
3366.74
3269.32
3171.9
3074.47
2977.05
2879.63
2782.21
2684.79
2587.37
2489.95
2392.52
2295.1
2197.68
2100.26
2002.84
1905.42
1807.99
1710.57
1613.15
1515.73
1418.3
1320.87
1223.44
1126.01
1028.57
931.108
833.607
736.068
638.613
541.114
442.777
344.764
249.805
143.379
41.4644
9725.7
9529.4
9493.46
9418.81
9309.74
9212.69
9121.74
9026.78
8929.07
8830.97
8732.85
8634.56
8536.14
8437.72
8339.38
8241.14
8143.02
8045.02
7947.12
7849.32
7751.6
7653.95
7556.35
7458.79
7361.27
7263.78
7166.3
7068.84
6971.39
6873.95
6776.51
6679.08
6581.65
6484.23
6386.8
6289.38
6191.96
6094.53
5997.11
5899.69
5802.27
5704.85
5607.43
5510
5412.58
5315.16
5217.74
5120.32
5022.9
4925.48
4828.06
4730.63
4633.21
4535.79
4438.37
4340.95
4243.53
4146.11
4048.69
3951.26
3853.84
3756.42
3659
3561.58
3464.16
3366.74
3269.32
3171.9
3074.47
2977.05
2879.63
2782.21
2684.79
2587.37
2489.95
2392.52
2295.1
2197.68
2100.26
2002.84
1905.42
1807.99
1710.57
1613.15
1515.73
1418.3
1320.87
1223.44
1126.01
1028.57
931.108
833.607
736.068
638.613
541.114
442.777
344.764
249.805
143.379
41.4644
9725.06
9528.77
9492.74
9418.02
9308.94
9211.89
9120.95
9026.04
8928.41
8830.39
8732.36
8634.15
8535.81
8437.45
8339.17
8240.97
8142.89
8044.92
7947.05
7849.27
7751.56
7653.92
7556.33
7458.78
7361.26
7263.77
7166.3
7068.84
6971.39
6873.95
6776.51
6679.08
6581.65
6484.23
6386.8
6289.38
6191.96
6094.53
5997.11
5899.69
5802.27
5704.85
5607.43
5510
5412.58
5315.16
5217.74
5120.32
5022.9
4925.48
4828.06
4730.63
4633.21
4535.79
4438.37
4340.95
4243.53
4146.11
4048.69
3951.26
3853.84
3756.42
3659
3561.58
3464.16
3366.74
3269.32
3171.9
3074.47
2977.05
2879.63
2782.21
2684.79
2587.37
2489.95
2392.52
2295.1
2197.68
2100.26
2002.84
1905.42
1807.99
1710.57
1613.15
1515.73
1418.3
1320.87
1223.44
1126.01
1028.57
931.112
833.612
736.076
638.625
541.134
442.809
344.805
249.863
143.572
41.6247
9723.74
9527.51
9491.28
9416.42
9307.32
9210.28
9119.37
9024.56
8927.08
8829.24
8731.38
8633.34
8535.15
8436.93
8338.75
8240.65
8142.65
8044.73
7946.91
7849.16
7751.48
7653.86
7556.29
7458.75
7361.24
7263.75
7166.28
7068.83
6971.38
6873.94
6776.51
6679.08
6581.65
6484.23
6386.8
6289.38
6191.96
6094.53
5997.11
5899.69
5802.27
5704.85
5607.43
5510
5412.58
5315.16
5217.74
5120.32
5022.9
4925.48
4828.06
4730.63
4633.21
4535.79
4438.37
4340.95
4243.53
4146.11
4048.69
3951.26
3853.84
3756.42
3659
3561.58
3464.16
3366.74
3269.32
3171.9
3074.47
2977.05
2879.63
2782.21
2684.79
2587.37
2489.95
2392.52
2295.1
2197.68
2100.26
2002.84
1905.42
1807.99
1710.57
1613.15
1515.73
1418.3
1320.87
1223.44
1126.01
1028.57
931.118
833.622
736.092
638.65
541.174
442.872
344.886
249.979
143.956
41.9442
9721.69
9525.57
9489.06
9413.99
9304.9
9207.88
9117.02
9022.37
8925.13
8827.55
8729.95
8632.15
8534.19
8436.16
8338.15
8240.18
8142.29
8044.46
7946.7
7849.01
7751.37
7653.78
7556.23
7458.71
7361.21
7263.73
7166.27
7068.82
6971.38
6873.94
6776.51
6679.08
6581.65
6484.23
6386.8
6289.38
6191.96
6094.53
5997.11
5899.69
5802.27
5704.85
5607.43
5510
5412.58
5315.16
5217.74
5120.32
5022.9
4925.48
4828.06
4730.63
4633.21
4535.79
4438.37
4340.95
4243.53
4146.11
4048.69
3951.26
3853.84
3756.42
3659
3561.58
3464.16
3366.74
3269.32
3171.9
3074.47
2977.05
2879.63
2782.21
2684.79
2587.37
2489.95
2392.52
2295.1
2197.68
2100.26
2002.84
1905.42
1808
1710.57
1613.15
1515.73
1418.3
1320.88
1223.45
1126.02
1028.58
931.128
833.637
736.116
638.686
541.231
442.964
345.005
250.149
144.528
42.4199
9718.82
9522.93
9486.02
9410.69
9301.67
9204.71
9113.94
9019.52
8922.61
8825.37
8728.11
8630.63
8532.95
8435.17
8337.37
8239.58
8141.82
8044.11
7946.44
7848.81
7751.23
7653.67
7556.15
7458.65
7361.17
7263.7
7166.25
7068.8
6971.37
6873.93
6776.5
6679.07
6581.65
6484.22
6386.8
6289.38
6191.96
6094.53
5997.11
5899.69
5802.27
5704.85
5607.43
5510
5412.58
5315.16
5217.74
5120.32
5022.9
4925.48
4828.06
4730.63
4633.21
4535.79
4438.37
4340.95
4243.53
4146.11
4048.69
3951.26
3853.84
3756.42
3659
3561.58
3464.16
3366.74
3269.32
3171.9
3074.47
2977.05
2879.63
2782.21
2684.79
2587.37
2489.95
2392.53
2295.1
2197.68
2100.26
2002.84
1905.42
1808
1710.57
1613.15
1515.73
1418.3
1320.88
1223.45
1126.02
1028.59
931.14
833.657
736.147
638.732
541.304
443.082
345.159
250.369
145.28
43.0453
9715.03
9519.55
9482.13
9406.52
9297.65
9200.81
9110.19
9016.08
8919.56
8822.75
8725.9
8628.8
8531.47
8433.99
8336.44
8238.86
8141.27
8043.69
7946.13
7848.58
7751.05
7653.55
7556.06
7458.58
7361.12
7263.67
7166.23
7068.79
6971.35
6873.92
6776.5
6679.07
6581.65
6484.22
6386.8
6289.38
6191.95
6094.53
5997.11
5899.69
5802.27
5704.85
5607.43
5510
5412.58
5315.16
5217.74
5120.32
5022.9
4925.48
4828.06
4730.63
4633.21
4535.79
4438.37
4340.95
4243.53
4146.11
4048.69
3951.26
3853.84
3756.42
3659
3561.58
3464.16
3366.74
3269.32
3171.9
3074.47
2977.05
2879.63
2782.21
2684.79
2587.37
2489.95
2392.53
2295.1
2197.68
2100.26
2002.84
1905.42
1808
1710.57
1613.15
1515.73
1418.31
1320.88
1223.46
1126.03
1028.6
931.154
833.68
736.183
638.787
541.392
443.223
345.344
250.634
146.197
43.8081
9710.2
9515.39
9477.34
9401.45
9292.86
9196.25
9105.84
9012.11
8916.08
8819.77
8723.39
8626.74
8529.79
8432.66
8335.39
8238.05
8140.65
8043.22
7945.77
7848.32
7750.86
7653.41
7555.96
7458.51
7361.07
7263.63
7166.2
7068.77
6971.34
6873.91
6776.49
6679.07
6581.64
6484.22
6386.8
6289.38
6191.95
6094.53
5997.11
5899.69
5802.27
5704.85
5607.43
5510
5412.58
5315.16
5217.74
5120.32
5022.9
4925.48
4828.06
4730.63
4633.21
4535.79
4438.37
4340.95
4243.53
4146.11
4048.69
3951.26
3853.84
3756.42
3659
3561.58
3464.16
3366.74
3269.32
3171.9
3074.47
2977.05
2879.63
2782.21
2684.79
2587.37
2489.95
2392.53
2295.1
2197.68
2100.26
2002.84
1905.42
1808
1710.58
1613.15
1515.73
1418.31
1320.88
1223.46
1126.03
1028.61
931.171
833.706
736.225
638.85
541.49
443.384
345.555
250.934
147.253
44.6894
9704.2
9510.43
9471.63
9395.5
9287.39
9191.11
9100.98
9007.72
8912.26
8816.51
8720.66
8624.49
8527.98
8431.21
8334.26
8237.17
8139.97
8042.71
7945.39
7848.03
7750.65
7653.25
7555.84
7458.43
7361.01
7263.59
7166.17
7068.75
6971.33
6873.9
6776.48
6679.06
6581.64
6484.22
6386.8
6289.37
6191.95
6094.53
5997.11
5899.69
5802.27
5704.85
5607.43
5510
5412.58
5315.16
5217.74
5120.32
5022.9
4925.48
4828.06
4730.63
4633.21
4535.79
4438.37
4340.95
4243.53
4146.11
4048.69
3951.26
3853.84
3756.42
3659
3561.58
3464.16
3366.74
3269.32
3171.9
3074.47
2977.05
2879.63
2782.21
2684.79
2587.37
2489.95
2392.53
2295.1
2197.68
2100.26
2002.84
1905.42
1808
1710.58
1613.15
1515.73
1418.31
1320.89
1223.47
1126.04
1028.62
931.189
833.735
736.271
638.919
541.597
443.559
345.787
251.257
148.418
45.6639
9696.94
9504.7
9465.03
9388.74
9281.33
9185.51
9095.75
9003.03
8908.21
8813.08
8717.79
8622.13
8526.07
8429.69
8333.07
8236.24
8139.26
8042.17
7944.98
7847.73
7750.43
7653.09
7555.73
7458.34
7360.95
7263.55
7166.14
7068.73
6971.31
6873.89
6776.48
6679.06
6581.64
6484.22
6386.79
6289.37
6191.95
6094.53
5997.11
5899.69
5802.27
5704.85
5607.43
5510
5412.58
5315.16
5217.74
5120.32
5022.9
4925.48
4828.06
4730.63
4633.21
4535.79
4438.37
4340.95
4243.53
4146.11
4048.69
3951.26
3853.84
3756.42
3659
3561.58
3464.16
3366.74
3269.32
3171.9
3074.47
2977.05
2879.63
2782.21
2684.79
2587.37
2489.95
2392.53
2295.1
2197.68
2100.26
2002.84
1905.42
1808
1710.58
1613.16
1515.73
1418.31
1320.89
1223.47
1126.05
1028.63
931.207
833.766
736.32
638.991
541.707
443.743
346.035
251.59
149.655
46.7058
9688.36
9498.26
9457.62
9381.29
9274.83
9179.61
9090.29
8998.19
8904.07
8809.58
8714.88
8619.74
8524.14
8428.16
8331.86
8235.31
8138.55
8041.62
7944.57
7847.42
7750.2
7652.92
7555.61
7458.26
7360.89
7263.5
7166.11
7068.71
6971.3
6873.88
6776.47
6679.05
6581.63
6484.21
6386.79
6289.37
6191.95
6094.53
5997.11
5899.69
5802.27
5704.85
5607.43
5510
5412.58
5315.16
5217.74
5120.32
5022.9
4925.48
4828.06
4730.63
4633.21
4535.79
4438.37
4340.95
4243.53
4146.11
4048.69
3951.26
3853.84
3756.42
3659
3561.58
3464.16
3366.74
3269.32
3171.9
3074.47
2977.05
2879.63
2782.21
2684.79
2587.37
2489.95
2392.53
2295.1
2197.68
2100.26
2002.84
1905.42
1808
1710.58
1613.16
1515.74
1418.32
1320.9
1223.48
1126.06
1028.64
931.227
833.797
736.369
639.065
541.819
443.932
346.293
251.923
150.942
47.8003
9678.5
9491.3
9449.56
9373.33
9268.11
9173.61
9084.79
8993.36
8899.96
8806.13
8712.01
8617.39
8522.25
8426.65
8330.68
8234.39
8137.84
8041.09
7944.17
7847.12
7749.98
7652.76
7555.49
7458.17
7360.83
7263.46
7166.08
7068.68
6971.28
6873.87
6776.46
6679.05
6581.63
6484.21
6386.79
6289.37
6191.95
6094.53
5997.11
5899.69
5802.27
5704.85
5607.43
5510
5412.58
5315.16
5217.74
5120.32
5022.9
4925.48
4828.06
4730.63
4633.21
4535.79
4438.37
4340.95
4243.53
4146.11
4048.69
3951.26
3853.84
3756.42
3659
3561.58
3464.16
3366.74
3269.32
3171.89
3074.47
2977.05
2879.63
2782.21
2684.79
2587.37
2489.95
2392.53
2295.1
2197.68
2100.26
2002.84
1905.42
1808
1710.58
1613.16
1515.74
1418.32
1320.9
1223.48
1126.07
1028.65
931.245
833.827
736.419
639.138
541.927
444.121
346.559
252.247
152.284
48.9586
9667.53
9484.09
9441.13
9365.14
9261.43
9167.75
9079.45
8988.72
8896.04
8802.85
8709.29
8615.17
8520.46
8425.22
8329.55
8233.51
8137.17
8040.57
7943.78
7846.83
7749.77
7652.6
7555.37
7458.09
7360.77
7263.42
7166.05
7068.66
6971.27
6873.86
6776.45
6679.04
6581.63
6484.21
6386.79
6289.37
6191.95
6094.53
5997.11
5899.69
5802.27
5704.85
5607.43
5510
5412.58
5315.16
5217.74
5120.32
5022.9
4925.48
4828.06
4730.63
4633.21
4535.79
4438.37
4340.95
4243.53
4146.11
4048.69
3951.26
3853.84
3756.42
3659
3561.58
3464.16
3366.74
3269.32
3171.89
3074.47
2977.05
2879.63
2782.21
2684.79
2587.37
2489.95
2392.53
2295.1
2197.68
2100.26
2002.84
1905.42
1808
1710.58
1613.16
1515.74
1418.32
1320.9
1223.49
1126.07
1028.67
931.263
833.856
736.467
639.208
542.029
444.305
346.83
252.56
153.721
50.2178
9655.82
9477.05
9432.72
9357.09
9255.12
9162.3
9074.51
8984.46
8892.46
8799.87
8706.82
8613.15
8518.83
8423.92
8328.53
8232.72
8136.55
8040.11
7943.43
7846.57
7749.57
7652.46
7555.27
7458.01
7360.71
7263.38
7166.02
7068.64
6971.25
6873.85
6776.45
6679.04
6581.62
6484.21
6386.79
6289.37
6191.95
6094.53
5997.11
5899.69
5802.27
5704.85
5607.43
5510
5412.58
5315.16
5217.74
5120.32
5022.9
4925.48
4828.06
4730.63
4633.21
4535.79
4438.37
4340.95
4243.53
4146.11
4048.69
3951.26
3853.84
3756.42
3659
3561.58
3464.16
3366.74
3269.32
3171.89
3074.47
2977.05
2879.63
2782.21
2684.79
2587.37
2489.95
2392.53
2295.1
2197.68
2100.26
2002.84
1905.42
1808
1710.58
1613.16
1515.74
1418.32
1320.91
1223.49
1126.08
1028.68
931.28
833.883
736.511
639.272
542.121
444.478
347.101
252.861
155.32
51.6418
9643.95
9470.72
9424.83
9349.61
9249.5
9157.51
9070.19
8980.74
8889.36
8797.29
8704.69
8611.4
8517.41
8422.79
8327.64
8232.02
8136.02
8039.7
7943.12
7846.34
7749.4
7652.33
7555.18
7457.95
7360.67
7263.35
7166
7068.63
6971.24
6873.85
6776.44
6679.03
6581.62
6484.2
6386.79
6289.37
6191.95
6094.53
5997.11
5899.69
5802.27
5704.85
5607.43
5510
5412.58
5315.16
5217.74
5120.32
5022.9
4925.48
4828.06
4730.63
4633.21
4535.79
4438.37
4340.95
4243.53
4146.11
4048.69
3951.26
3853.84
3756.42
3659
3561.58
3464.16
3366.74
3269.32
3171.89
3074.47
2977.05
2879.63
2782.21
2684.79
2587.37
2489.95
2392.53
2295.1
2197.68
2100.26
2002.84
1905.42
1808
1710.58
1613.16
1515.74
1418.33
1320.91
1223.5
1126.09
1028.69
931.294
833.907
736.551
639.329
542.199
444.636
347.364
253.147
157.125
53.2782
9632.75
9465.72
9418
9343.15
9244.9
9153.65
9066.68
8977.73
8886.87
8795.22
8702.97
8609.99
8516.26
8421.88
8326.91
8231.45
8135.58
8039.36
7942.86
7846.15
7749.26
7652.23
7555.1
7457.89
7360.63
7263.32
7165.98
7068.61
6971.23
6873.84
6776.44
6679.03
6581.62
6484.2
6386.79
6289.37
6191.95
6094.53
5997.11
5899.69
5802.27
5704.85
5607.43
5510
5412.58
5315.16
5217.74
5120.32
5022.9
4925.48
4828.06
4730.63
4633.21
4535.79
4438.37
4340.95
4243.53
4146.11
4048.69
3951.26
3853.84
3756.42
3659
3561.58
3464.16
3366.74
3269.32
3171.89
3074.47
2977.05
2879.63
2782.21
2684.79
2587.37
2489.95
2392.53
2295.1
2197.68
2100.26
2002.84
1905.42
1808
1710.58
1613.16
1515.74
1418.33
1320.91
1223.5
1126.09
1028.69
931.306
833.927
736.585
639.377
542.26
444.772
347.609
253.401
158.939
54.9504
9623.2
9462.65
9412.76
9338.13
9241.59
9150.92
9064.16
8975.57
8885.08
8793.73
8701.72
8608.96
8515.43
8421.2
8326.38
8231.03
8135.25
8039.11
7942.67
7846
7749.15
7652.15
7555.04
7457.85
7360.6
7263.3
7165.96
7068.6
6971.22
6873.83
6776.43
6679.03
6581.62
6484.2
6386.79
6289.37
6191.95
6094.53
5997.11
5899.69
5802.27
5704.85
5607.43
5510
5412.58
5315.16
5217.74
5120.32
5022.9
4925.48
4828.06
4730.63
4633.21
4535.79
4438.37
4340.95
4243.53
4146.11
4048.69
3951.26
3853.84
3756.42
3659
3561.58
3464.16
3366.74
3269.32
3171.89
3074.47
2977.05
2879.63
2782.21
2684.79
2587.37
2489.95
2392.53
2295.1
2197.68
2100.26
2002.84
1905.42
1808
1710.58
1613.16
1515.74
1418.33
1320.91
1223.5
1126.1
1028.7
931.315
833.942
736.611
639.412
542.304
444.881
347.822
253.601
160.425
56.3495
9616.25
9461.91
9409.5
9334.84
9239.76
9149.45
9062.71
8974.31
8884.05
8792.87
8701
8608.35
8514.93
8420.8
8326.05
8230.77
8135.05
8038.95
7942.55
7845.91
7749.08
7652.1
7555
7457.82
7360.58
7263.28
7165.95
7068.59
6971.22
6873.83
6776.43
6679.03
6581.61
6484.2
6386.78
6289.37
6191.95
6094.53
5997.11
5899.69
5802.27
5704.85
5607.42
5510
5412.58
5315.16
5217.74
5120.32
5022.9
4925.48
4828.06
4730.63
4633.21
4535.79
4438.37
4340.95
4243.53
4146.11
4048.69
3951.26
3853.84
3756.42
3659
3561.58
3464.16
3366.74
3269.32
3171.89
3074.47
2977.05
2879.63
2782.21
2684.79
2587.37
2489.95
2392.53
2295.1
2197.68
2100.26
2002.84
1905.42
1808
1710.58
1613.16
1515.75
1418.33
1320.91
1223.5
1126.1
1028.7
931.32
833.952
736.629
639.435
542.327
444.959
347.99
253.725
161.283
57.195
9612.84
9463.55
9408.33
9333.42
9239.43
9149.25
9062.36
8973.98
8883.79
8792.65
8700.8
8608.17
8514.77
8420.67
8325.94
8230.69
8134.98
8038.9
7942.51
7845.88
7749.05
7652.08
7554.99
7457.81
7360.57