/*--------------------------------*- C++ -*----------------------------------*\
| =========                 |                                                 |
| \\      /  F ield         | foam-extend: Open Source CFD                    |
|  \\    /   O peration     | Version:     5.0                                |
|   \\  /    A nd           | Web:         http://www.foam-extend.org         |
|    \\/     M anipulation  |                                                 |
\*---------------------------------------------------------------------------*/
FoamFile
{
    version     2.0;
    format      ascii;
    class       volScalarField;
    location    "0.025";
    object      pd;
}
// * * * * * * * * * * * * * * * * * * * * * * * * * * * * * * * * * * * * * //

dimensions      [1 -1 -2 0 0 0 0];

internalField   nonuniform List<scalar> 
4000
(
9618.81
9470.98
9410.83
9335.61
9242.62
9152.04
9064.51
8975.85
8885.49
8794.16
8702.13
8609.35
8515.81
8421.59
8326.77
8231.44
8135.67
8039.53
7943.11
7846.45
7749.6
7652.61
7555.51
7458.33
7361.08
7263.78
7166.45
7069.09
6971.71
6874.32
6776.92
6679.52
6582.11
6484.69
6387.28
6289.86
6192.44
6095.02
5997.6
5900.18
5802.76
5705.34
5607.92
5510.5
5413.07
5315.65
5218.23
5120.81
5023.39
4925.97
4828.55
4731.13
4633.7
4536.28
4438.86
4341.44
4244.02
4146.6
4049.18
3951.76
3854.33
3756.91
3659.49
3562.07
3464.65
3367.23
3269.81
3172.39
3074.96
2977.54
2880.12
2782.7
2685.28
2587.86
2490.44
2393.02
2295.6
2198.17
2100.75
2003.33
1905.91
1808.49
1711.07
1613.65
1516.24
1418.82
1321.4
1223.99
1126.59
1029.19
931.808
834.44
737.121
639.914
542.765
445.45
348.644
254.269
161.5
57.5864
9614.07
9467.47
9409.37
9334.15
9240.89
9150.62
9063.42
8974.91
8884.67
8793.47
8701.55
8608.88
8515.43
8421.28
8326.52
8231.24
8135.52
8039.42
7943.02
7846.38
7749.56
7652.58
7555.49
7458.31
7361.06
7263.77
7166.44
7069.08
6971.71
6874.32
6776.92
6679.52
6582.11
6484.69
6387.28
6289.86
6192.44
6095.02
5997.6
5900.18
5802.76
5705.34
5607.92
5510.5
5413.07
5315.65
5218.23
5120.81
5023.39
4925.97
4828.55
4731.13
4633.7
4536.28
4438.86
4341.44
4244.02
4146.6
4049.18
3951.76
3854.33
3756.91
3659.49
3562.07
3464.65
3367.23
3269.81
3172.39
3074.96
2977.54
2880.12
2782.7
2685.28
2587.86
2490.44
2393.02
2295.6
2198.17
2100.75
2003.33
1905.91
1808.49
1711.07
1613.65
1516.24
1418.82
1321.41
1223.99
1126.59
1029.19
931.812
834.446
737.129
639.93
542.801
445.491
348.649
254.266
161.683
57.7269
9613.34
9464.05
9408.83
9333.92
9239.93
9149.77
9062.86
8974.46
8884.27
8793.13
8701.29
8608.67
8515.27
8421.15
8326.43
8231.17
8135.46
8039.38
7942.99
7846.36
7749.54
7652.57
7555.48
7458.3
7361.06
7263.77
7166.44
7069.08
6971.71
6874.32
6776.92
6679.52
6582.11
6484.69
6387.28
6289.86
6192.44
6095.02
5997.6
5900.18
5802.76
5705.34
5607.92
5510.5
5413.07
5315.65
5218.23
5120.81
5023.39
4925.97
4828.55
4731.13
4633.7
4536.28
4438.86
4341.44
4244.02
4146.6
4049.18
3951.76
3854.33
3756.91
3659.49
3562.07
3464.65
3367.23
3269.81
3172.39
3074.96
2977.54
2880.12
2782.7
2685.28
2587.86
2490.44
2393.02
2295.6
2198.17
2100.75
2003.33
1905.91
1808.49
1711.07
1613.65
1516.24
1418.82
1321.41
1223.99
1126.59
1029.2
931.813
834.447
737.129
639.935
542.82
445.49
348.594
254.264
161.938
57.9023
9616.75
9462.41
9410
9335.34
9240.26
9149.98
9063.21
8974.8
8884.54
8793.35
8701.49
8608.85
8515.42
8421.28
8326.53
8231.26
8135.53
8039.43
7943.04
7846.4
7749.57
7652.59
7555.49
7458.31
7361.07
7263.77
7166.44
7069.08
6971.71
6874.32
6776.92
6679.52
6582.11
6484.69
6387.28
6289.86
6192.44
6095.02
5997.6
5900.18
5802.76
5705.34
5607.92
5510.5
5413.07
5315.65
5218.23
5120.81
5023.39
4925.97
4828.55
4731.13
4633.7
4536.28
4438.86
4341.44
4244.02
4146.6
4049.18
3951.76
3854.33
3756.91
3659.49
3562.07
3464.65
3367.23
3269.81
3172.39
3074.96
2977.54
2880.12
2782.7
2685.28
2587.86
2490.44
2393.02
2295.6
2198.17
2100.75
2003.33
1905.91
1808.49
1711.07
1613.65
1516.24
1418.82
1321.41
1223.99
1126.59
1029.19
931.811
834.443
737.12
639.926
542.818
445.449
348.48
254.216
161.774
57.6857
9623.69
9463.15
9413.26
9338.63
9242.1
9151.44
9064.66
8976.06
8885.57
8794.21
8702.21
8609.45
8515.92
8421.69
8326.86
8231.51
8135.73
8039.59
7943.16
7846.49
7749.63
7652.64
7555.53
7458.34
7361.09
7263.79
7166.45
7069.09
6971.71
6874.32
6776.92
6679.52
6582.11
6484.69
6387.28
6289.86
6192.44
6095.02
5997.6
5900.18
5802.76
5705.34
5607.92
5510.5
5413.07
5315.65
5218.23
5120.81
5023.39
4925.97
4828.55
4731.13
4633.7
4536.28
4438.86
4341.44
4244.02
4146.6
4049.18
3951.76
3854.33
3756.91
3659.49
3562.07
3464.65
3367.23
3269.81
3172.39
3074.96
2977.54
2880.12
2782.7
2685.28
2587.86
2490.44
2393.02
2295.6
2198.17
2100.75
2003.33
1905.91
1808.49
1711.07
1613.65
1516.24
1418.82
1321.4
1223.99
1126.59
1029.19
931.805
834.433
737.102
639.903
542.794
445.372
348.312
254.092
160.916
56.8401
9633.25
9466.22
9418.49
9343.65
9245.4
9154.17
9067.18
8978.23
8887.36
8795.7
8703.46
8610.48
8516.75
8422.36
8327.4
8231.94
8136.06
8039.84
7943.35
7846.63
7749.74
7652.72
7555.59
7458.38
7361.12
7263.81
7166.47
7069.1
6971.72
6874.33
6776.93
6679.52
6582.11
6484.69
6387.28
6289.86
6192.44
6095.02
5997.6
5900.18
5802.76
5705.34
5607.92
5510.5
5413.07
5315.65
5218.23
5120.81
5023.39
4925.97
4828.55
4731.13
4633.7
4536.28
4438.86
4341.44
4244.02
4146.6
4049.18
3951.76
3854.33
3756.91
3659.49
3562.07
3464.65
3367.23
3269.81
3172.39
3074.96
2977.54
2880.12
2782.7
2685.28
2587.86
2490.44
2393.02
2295.6
2198.17
2100.75
2003.33
1905.91
1808.49
1711.07
1613.65
1516.23
1418.82
1321.4
1223.99
1126.58
1029.18
931.796
834.418
737.075
639.867
542.751
445.262
348.1
253.892
159.43
55.4411
9644.45
9471.22
9425.32
9350.1
9250
9158.02
9070.68
8981.23
8889.85
8797.77
8705.18
8611.89
8517.9
8423.28
8328.12
8232.51
8136.5
8040.18
7943.6
7846.82
7749.88
7652.82
7555.66
7458.44
7361.16
7263.84
7166.49
7069.12
6971.73
6874.34
6776.93
6679.52
6582.11
6484.7
6387.28
6289.86
6192.44
6095.02
5997.6
5900.18
5802.76
5705.34
5607.92
5510.5
5413.07
5315.65
5218.23
5120.81
5023.39
4925.97
4828.55
4731.13
4633.7
4536.28
4438.86
4341.44
4244.02
4146.6
4049.18
3951.76
3854.33
3756.91
3659.49
3562.07
3464.65
3367.23
3269.81
3172.39
3074.96
2977.54
2880.12
2782.7
2685.28
2587.86
2490.44
2393.02
2295.6
2198.17
2100.75
2003.33
1905.91
1808.49
1711.07
1613.65
1516.23
1418.82
1321.4
1223.99
1126.58
1029.18
931.785
834.398
737.042
639.82
542.689
445.126
347.855
253.638
157.616
53.7688
9656.31
9477.55
9433.22
9357.58
9255.62
9162.8
9075.01
8984.95
8892.95
8800.35
8707.31
8613.64
8519.31
8424.41
8329.02
8233.2
8137.04
8040.59
7943.92
7847.06
7750.06
7652.95
7555.76
7458.5
7361.2
7263.87
7166.51
7069.13
6971.74
6874.34
6776.94
6679.53
6582.11
6484.7
6387.28
6289.86
6192.44
6095.02
5997.6
5900.18
5802.76
5705.34
5607.92
5510.5
5413.07
5315.65
5218.23
5120.81
5023.39
4925.97
4828.55
4731.13
4633.7
4536.28
4438.86
4341.44
4244.02
4146.6
4049.18
3951.76
3854.33
3756.91
3659.49
3562.07
3464.65
3367.23
3269.81
3172.39
3074.96
2977.54
2880.12
2782.7
2685.28
2587.86
2490.44
2393.02
2295.6
2198.17
2100.75
2003.33
1905.91
1808.49
1711.07
1613.65
1516.23
1418.81
1321.4
1223.98
1126.57
1029.17
931.77
834.374
737.002
639.763
542.611
444.969
347.591
253.352
155.811
52.1324
9668.03
9484.59
9441.63
9365.63
9261.93
9168.26
9079.95
8989.22
8896.53
8803.34
8709.78
8615.66
8520.95
8425.71
8330.04
8234
8137.65
8041.06
7944.27
7847.32
7750.25
7653.09
7555.86
7458.58
7361.26
7263.91
7166.54
7069.15
6971.76
6874.35
6776.94
6679.53
6582.12
6484.7
6387.28
6289.86
6192.44
6095.02
5997.6
5900.18
5802.76
5705.34
5607.92
5510.5
5413.07
5315.65
5218.23
5120.81
5023.39
4925.97
4828.55
4731.13
4633.7
4536.28
4438.86
4341.44
4244.02
4146.6
4049.18
3951.76
3854.33
3756.91
3659.49
3562.07
3464.65
3367.23
3269.81
3172.39
3074.96
2977.54
2880.12
2782.7
2685.28
2587.86
2490.44
2393.02
2295.6
2198.17
2100.75
2003.33
1905.91
1808.49
1711.07
1613.65
1516.23
1418.81
1321.39
1223.98
1126.56
1029.16
931.754
834.347
736.957
639.699
542.52
444.795
347.32
253.05
154.212
50.7084
9679
9491.8
9450.06
9373.82
9268.61
9174.11
9085.28
8993.87
8900.45
8806.61
8712.5
8617.88
8522.74
8427.14
8331.16
8234.87
8138.33
8041.57
7944.65
7847.61
7750.47
7653.25
7555.98
7458.66
7361.32
7263.95
7166.57
7069.17
6971.77
6874.36
6776.95
6679.54
6582.12
6484.7
6387.28
6289.86
6192.44
6095.02
5997.6
5900.18
5802.76
5705.34
5607.92
5510.5
5413.07
5315.65
5218.23
5120.81
5023.39
4925.97
4828.55
4731.13
4633.7
4536.28
4438.86
4341.44
4244.02
4146.6
4049.18
3951.76
3854.33
3756.91
3659.49
3562.07
3464.65
3367.23
3269.81
3172.39
3074.96
2977.54
2880.12
2782.7
2685.28
2587.86
2490.44
2393.02
2295.6
2198.17
2100.75
2003.33
1905.91
1808.49
1711.07
1613.65
1516.23
1418.81
1321.39
1223.97
1126.56
1029.15
931.736
834.318
736.91
639.629
542.418
444.611
347.05
252.738
152.775
49.4491
9688.86
9498.76
9458.11
9381.77
9275.33
9180.11
9090.79
8998.7
8904.56
8810.07
8715.37
8620.23
8524.63
8428.65
8332.35
8235.79
8139.03
8042.11
7945.06
7847.91
7750.69
7653.41
7556.09
7458.75
7361.38
7263.99
7166.6
7069.2
6971.79
6874.37
6776.96
6679.54
6582.12
6484.7
6387.28
6289.86
6192.44
6095.02
5997.6
5900.18
5802.76
5705.34
5607.92
5510.5
5413.07
5315.65
5218.23
5120.81
5023.39
4925.97
4828.55
4731.13
4633.7
4536.28
4438.86
4341.44
4244.02
4146.6
4049.18
3951.76
3854.33
3756.91
3659.49
3562.07
3464.65
3367.23
3269.81
3172.39
3074.96
2977.54
2880.12
2782.7
2685.28
2587.86
2490.44
2393.02
2295.6
2198.17
2100.75
2003.33
1905.91
1808.49
1711.07
1613.65
1516.23
1418.81
1321.39
1223.97
1126.55
1029.13
931.717
834.287
736.86
639.556
542.309
444.423
346.784
252.414
151.432
48.2908
9697.43
9505.19
9465.52
9389.23
9281.82
9186.01
9096.24
9003.53
8908.71
8813.57
8718.28
8622.62
8526.56
8430.18
8333.55
8236.73
8139.75
8042.66
7945.47
7848.22
7750.91
7653.58
7556.21
7458.83
7361.44
7264.04
7166.63
7069.22
6971.8
6874.38
6776.97
6679.55
6582.13
6484.71
6387.29
6289.86
6192.44
6095.02
5997.6
5900.18
5802.76
5705.34
5607.92
5510.5
5413.07
5315.65
5218.23
5120.81
5023.39
4925.97
4828.55
4731.13
4633.7
4536.28
4438.86
4341.44
4244.02
4146.6
4049.18
3951.76
3854.33
3756.91
3659.49
3562.07
3464.65
3367.23
3269.81
3172.39
3074.96
2977.54
2880.12
2782.7
2685.28
2587.86
2490.44
2393.02
2295.59
2198.17
2100.75
2003.33
1905.91
1808.49
1711.07
1613.65
1516.23
1418.8
1321.38
1223.96
1126.54
1029.12
931.698
834.256
736.81
639.482
542.198
444.233
346.525
252.081
150.146
47.1964
9704.7
9510.93
9472.12
9395.99
9287.88
9191.61
9101.48
9008.22
8912.75
8817
8721.15
8624.98
8528.47
8431.7
8334.75
8237.65
8140.46
8043.19
7945.87
7848.52
7751.14
7653.74
7556.33
7458.92
7361.5
7264.08
7166.66
7069.24
6971.82
6874.4
6776.97
6679.55
6582.13
6484.71
6387.29
6289.87
6192.44
6095.02
5997.6
5900.18
5802.76
5705.34
5607.92
5510.5
5413.07
5315.65
5218.23
5120.81
5023.39
4925.97
4828.55
4731.13
4633.7
4536.28
4438.86
4341.44
4244.02
4146.6
4049.18
3951.76
3854.33
3756.91
3659.49
3562.07
3464.65
3367.23
3269.81
3172.39
3074.96
2977.54
2880.12
2782.7
2685.28
2587.86
2490.44
2393.02
2295.59
2198.17
2100.75
2003.33
1905.91
1808.49
1711.07
1613.65
1516.22
1418.8
1321.38
1223.96
1126.53
1029.11
931.679
834.226
736.762
639.41
542.087
444.049
346.278
251.747
148.909
46.1545
9710.69
9515.88
9477.83
9401.94
9293.36
9196.75
9106.33
9012.6
8916.57
8820.26
8723.88
8627.22
8530.28
8433.15
8335.88
8238.54
8141.14
8043.71
7946.26
7848.8
7751.35
7653.89
7556.45
7459
7361.56
7264.12
7166.69
7069.26
6971.83
6874.41
6776.98
6679.56
6582.13
6484.71
6387.29
6289.87
6192.44
6095.02
5997.6
5900.18
5802.76
5705.34
5607.92
5510.5
5413.07
5315.65
5218.23
5120.81
5023.39
4925.97
4828.55
4731.13
4633.7
4536.28
4438.86
4341.44
4244.02
4146.6
4049.18
3951.76
3854.33
3756.91
3659.49
3562.07
3464.65
3367.23
3269.81
3172.39
3074.96
2977.54
2880.12
2782.7
2685.28
2587.86
2490.44
2393.02
2295.59
2198.17
2100.75
2003.33
1905.91
1808.49
1711.07
1613.64
1516.22
1418.8
1321.38
1223.95
1126.52
1029.1
931.661
834.197
736.716
639.341
541.981
443.874
346.046
251.424
147.744
45.18
9715.52
9520.04
9482.62
9407.01
9298.14
9201.31
9110.69
9016.57
8920.05
8823.24
8726.39
8629.29
8531.96
8434.48
8336.93
8239.35
8141.76
8044.18
7946.61
7849.07
7751.54
7654.04
7556.55
7459.07
7361.61
7264.16
7166.72
7069.28
6971.84
6874.41
6776.99
6679.56
6582.14
6484.71
6387.29
6289.87
6192.45
6095.02
5997.6
5900.18
5802.76
5705.34
5607.92
5510.5
5413.07
5315.65
5218.23
5120.81
5023.39
4925.97
4828.55
4731.13
4633.7
4536.28
4438.86
4341.44
4244.02
4146.6
4049.18
3951.76
3854.33
3756.91
3659.49
3562.07
3464.65
3367.23
3269.81
3172.39
3074.96
2977.54
2880.12
2782.7
2685.28
2587.86
2490.44
2393.02
2295.59
2198.17
2100.75
2003.33
1905.91
1808.49
1711.06
1613.64
1516.22
1418.8
1321.37
1223.95
1126.52
1029.09
931.645
834.17
736.674
639.278
541.882
443.714
345.834
251.125
146.687
44.2986
9719.32
9523.43
9486.51
9411.18
9302.16
9205.2
9114.44
9020.02
8923.1
8825.86
8728.6
8631.12
8533.44
8435.66
8337.86
8240.07
8142.31
8044.6
7946.93
7849.3
7751.72
7654.16
7556.64
7459.14
7361.66
7264.19
7166.74
7069.29
6971.86
6874.42
6776.99
6679.56
6582.14
6484.71
6387.29
6289.87
6192.45
6095.02
5997.6
5900.18
5802.76
5705.34
5607.92
5510.5
5413.07
5315.65
5218.23
5120.81
5023.39
4925.97
4828.55
4731.13
4633.7
4536.28
4438.86
4341.44
4244.02
4146.6
4049.18
3951.76
3854.33
3756.91
3659.49
3562.07
3464.65
3367.23
3269.81
3172.39
3074.96
2977.54
2880.12
2782.7
2685.28
2587.86
2490.44
2393.02
2295.59
2198.17
2100.75
2003.33
1905.91
1808.49
1711.06
1613.64
1516.22
1418.79
1321.37
1223.94
1126.51
1029.08
931.63
834.147
736.637
639.223
541.795
443.573
345.649
250.86
145.771
43.5358
9722.18
9526.06
9489.55
9414.47
9305.39
9208.37
9117.51
9022.87
8925.63
8828.04
8730.44
8632.64
8534.68
8436.65
8338.64
8240.67
8142.78
8044.95
7947.19
7849.5
7751.86
7654.27
7556.72
7459.2
7361.7
7264.22
7166.76
7069.31
6971.87
6874.43
6777
6679.57
6582.14
6484.72
6387.29
6289.87
6192.45
6095.02
5997.6
5900.18
5802.76
5705.34
5607.92
5510.5
5413.07
5315.65
5218.23
5120.81
5023.39
4925.97
4828.55
4731.13
4633.7
4536.28
4438.86
4341.44
4244.02
4146.6
4049.18
3951.76
3854.33
3756.91
3659.49
3562.07
3464.65
3367.23
3269.81
3172.39
3074.96
2977.54
2880.12
2782.7
2685.28
2587.86
2490.44
2393.02
2295.59
2198.17
2100.75
2003.33
1905.91
1808.49
1711.06
1613.64
1516.22
1418.79
1321.37
1223.94
1126.51
1029.07
931.618
834.128
736.606
639.176
541.721
443.454
345.495
250.639
145.019
42.9105
9724.23
9528
9491.77
9416.91
9307.82
9210.77
9119.86
9025.05
8927.57
8829.73
8731.87
8633.83
8535.64
8437.42
8339.24
8241.14
8143.14
8045.22
7947.4
7849.65
7751.97
7654.35
7556.78
7459.24
7361.73
7264.24
7166.78
7069.32
6971.87
6874.43
6777
6679.57
6582.14
6484.72
6387.29
6289.87
6192.45
6095.02
5997.6
5900.18
5802.76
5705.34
5607.92
5510.5
5413.07
5315.65
5218.23
5120.81
5023.39
4925.97
4828.55
4731.13
4633.7
4536.28
4438.86
4341.44
4244.02
4146.6
4049.18
3951.76
3854.33
3756.91
3659.49
3562.07
3464.65
3367.23
3269.81
3172.39
3074.96
2977.54
2880.12
2782.7
2685.28
2587.86
2490.44
2393.02
2295.59
2198.17
2100.75
2003.33
1905.91
1808.49
1711.06
1613.64
1516.22
1418.79
1321.37
1223.94
1126.5
1029.06
931.609
834.113
736.583
639.14
541.664
443.362
345.376
250.469
144.447
42.4347
9725.55
9529.27
9493.23
9418.51
9309.43
9212.38
9121.44
9026.53
8928.9
8830.88
8732.85
8634.64
8536.3
8437.95
8339.66
8241.46
8143.38
8045.41
7947.54
7849.76
7752.05
7654.41
7556.82
7459.27
7361.75
7264.26
7166.79
7069.33
6971.88
6874.44
6777
6679.57
6582.14
6484.72
6387.29
6289.87
6192.45
6095.02
5997.6
5900.18
5802.76
5705.34
5607.92
5510.5
5413.07
5315.65
5218.23
5120.81
5023.39
4925.97
4828.55
4731.13
4633.7
4536.28
4438.86
4341.44
4244.02
4146.6
4049.18
3951.76
3854.33
3756.91
3659.49
3562.07
3464.65
3367.23
3269.81
3172.39
3074.96
2977.54
2880.12
2782.7
2685.28
2587.86
2490.44
2393.02
2295.59
2198.17
2100.75
2003.33
1905.91
1808.49
1711.06
1613.64
1516.22
1418.79
1321.36
1223.93
1126.5
1029.06
931.602
834.102
736.566
639.116
541.625
443.3
345.295
250.354
144.062
42.1152
9726.19
9529.89
9493.95
9419.3
9310.23
9213.18
9122.23
9027.27
8929.57
8831.47
8733.34
8635.05
8536.63
8438.21
8339.87
8241.63
8143.51
8045.51
7947.61
7849.81
7752.09
7654.44
7556.84
7459.28
7361.76
7264.27
7166.79
7069.33
6971.88
6874.44
6777
6679.57
6582.14
6484.72
6387.29
6289.87
6192.45
6095.02
5997.6
5900.18
5802.76
5705.34
5607.92
5510.5
5413.07
5315.65
5218.23
5120.81
5023.39
4925.97
4828.55
4731.13
4633.7
4536.28
4438.86
4341.44
4244.02
4146.6
4049.18
3951.76
3854.33
3756.91
3659.49
3562.07
3464.65
3367.23
3269.81
3172.39
3074.96
2977.54
2880.12
2782.7
2685.28
2587.86
2490.44
2393.02
2295.59
2198.17
2100.75
2003.33
1905.91
1808.49
1711.06
1613.64
1516.22
1418.79
1321.36
1223.93
1126.5
1029.06
931.599
834.097
736.558
639.103
541.605
443.268
345.254
250.296
143.869
41.9549
9726.19
9529.89
9493.95
9419.3
9310.23
9213.18
9122.23
9027.27
8929.57
8831.47
8733.34
8635.05
8536.63
8438.21
8339.87
8241.63
8143.51
8045.51
7947.61
7849.81
7752.09
7654.44
7556.84
7459.28
7361.76
7264.27
7166.79
7069.33
6971.88
6874.44
6777
6679.57
6582.14
6484.72
6387.29
6289.87
6192.45
6095.02
5997.6
5900.18
5802.76
5705.34
5607.92
5510.5
5413.07
5315.65
5218.23
5120.81
5023.39
4925.97
4828.55
4731.13
4633.7
4536.28
4438.86
4341.44
4244.02
4146.6
4049.18
3951.76
3854.33
3756.91
3659.49
3562.07
3464.65
3367.23
3269.81
3172.39
3074.96
2977.54
2880.12
2782.7
2685.28
2587.86
2490.44
2393.02
2295.59
2198.17
2100.75
2003.33
1905.91
1808.49
1711.06
1613.64
1516.22
1418.79
1321.36
1223.93
1126.5
1029.06
931.599
834.097
736.558
639.103
541.605
443.268
345.254
250.296
143.869
41.9549
9725.55
9529.26
9493.23
9418.51
9309.43
9212.38
9121.44
9026.53
8928.9
8830.88
8732.85
8634.64
8536.3
8437.95
8339.66
8241.47
8143.38
8045.41
7947.54
7849.76
7752.05
7654.41
7556.82
7459.27
7361.75
7264.26
7166.79
7069.33
6971.88
6874.44
6777
6679.57
6582.14
6484.72
6387.29
6289.87
6192.45
6095.02
5997.6
5900.18
5802.76
5705.34
5607.92
5510.5
5413.07
5315.65
5218.23
5120.81
5023.39
4925.97
4828.55
4731.13
4633.7
4536.28
4438.86
4341.44
4244.02
4146.6
4049.18
3951.76
3854.33
3756.91
3659.49
3562.07
3464.65
3367.23
3269.81
3172.39
3074.96
2977.54
2880.12
2782.7
2685.28
2587.86
2490.44
2393.02
2295.59
2198.17
2100.75
2003.33
1905.91
1808.49
1711.06
1613.64
1516.22
1418.79
1321.36
1223.93
1126.5
1029.06
931.602
834.102
736.566
639.116
541.625
443.3
345.295
250.354
144.062
42.1152
9724.23
9528
9491.77
9416.91
9307.82
9210.77
9119.86
9025.05
8927.57
8829.73
8731.87
8633.83
8535.64
8437.42
8339.24
8241.14
8143.14
8045.22
7947.4
7849.65
7751.97
7654.35
7556.78
7459.24
7361.73
7264.24
7166.78
7069.32
6971.87
6874.43
6777
6679.57
6582.14
6484.72
6387.29
6289.87
6192.45
6095.02
5997.6
5900.18
5802.76
5705.34
5607.92
5510.5
5413.07
5315.65
5218.23
5120.81
5023.39
4925.97
4828.55
4731.13
4633.7
4536.28
4438.86
4341.44
4244.02
4146.6
4049.18
3951.76
3854.33
3756.91
3659.49
3562.07
3464.65
3367.23
3269.81
3172.39
3074.96
2977.54
2880.12
2782.7
2685.28
2587.86
2490.44
2393.02
2295.59
2198.17
2100.75
2003.33
1905.91
1808.49
1711.06
1613.64
1516.22
1418.79
1321.37
1223.94
1126.5
1029.06
931.609
834.113
736.583
639.14
541.664
443.362
345.376
250.469
144.447
42.4347
9722.18
9526.06
9489.55
9414.48
9305.39
9208.37
9117.51
9022.86
8925.62
8828.04
8730.44
8632.64
8534.68
8436.65
8338.64
8240.67
8142.78
8044.95
7947.19
7849.5
7751.86
7654.27
7556.72
7459.2
7361.7
7264.22
7166.76
7069.31
6971.87
6874.43
6777
6679.57
6582.14
6484.72
6387.29
6289.87
6192.45
6095.02
5997.6
5900.18
5802.76
5705.34
5607.92
5510.5
5413.07
5315.65
5218.23
5120.81
5023.39
4925.97
4828.55
4731.13
4633.7
4536.28
4438.86
4341.44
4244.02
4146.6
4049.18
3951.76
3854.33
3756.91
3659.49
3562.07
3464.65
3367.23
3269.81
3172.39
3074.96
2977.54
2880.12
2782.7
2685.28
2587.86
2490.44
2393.02
2295.59
2198.17
2100.75
2003.33
1905.91
1808.49
1711.06
1613.64
1516.22
1418.79
1321.37
1223.94
1126.51
1029.07
931.618
834.128
736.606
639.176
541.721
443.454
345.495
250.639
145.019
42.9104
9719.31
9523.42
9486.51
9411.18
9302.16
9205.2
9114.43
9020.01
8923.1
8825.86
8728.6
8631.12
8533.44
8435.66
8337.86
8240.07
8142.31
8044.6
7946.93
7849.3
7751.72
7654.16
7556.64
7459.14
7361.66
7264.19
7166.74
7069.29
6971.86
6874.42
6776.99
6679.56
6582.14
6484.71
6387.29
6289.87
6192.45
6095.02
5997.6
5900.18
5802.76
5705.34
5607.92
5510.5
5413.07
5315.65
5218.23
5120.81
5023.39
4925.97
4828.55
4731.13
4633.7
4536.28
4438.86
4341.44
4244.02
4146.6
4049.18
3951.76
3854.33
3756.91
3659.49
3562.07
3464.65
3367.23
3269.81
3172.39
3074.96
2977.54
2880.12
2782.7
2685.28
2587.86
2490.44
2393.02
2295.59
2198.17
2100.75
2003.33
1905.91
1808.49
1711.06
1613.64
1516.22
1418.79
1321.37
1223.94
1126.51
1029.08
931.63
834.147
736.637
639.222
541.795
443.573
345.649
250.86
145.771
43.5358
9715.52
9520.04
9482.62
9407.01
9298.14
9201.3
9110.68
9016.57
8920.05
8823.24
8726.39
8629.29
8531.96
8434.48
8336.93
8239.35
8141.76
8044.18
7946.62
7849.07
7751.54
7654.04
7556.55
7459.08
7361.61
7264.16
7166.72
7069.28
6971.84
6874.41
6776.99
6679.56
6582.14
6484.71
6387.29
6289.87
6192.45
6095.02
5997.6
5900.18
5802.76
5705.34
5607.92
5510.49
5413.07
5315.65
5218.23
5120.81
5023.39
4925.97
4828.55
4731.13
4633.7
4536.28
4438.86
4341.44
4244.02
4146.6
4049.18
3951.76
3854.33
3756.91
3659.49
3562.07
3464.65
3367.23
3269.81
3172.39
3074.96
2977.54
2880.12
2782.7
2685.28
2587.86
2490.44
2393.02
2295.59
2198.17
2100.75
2003.33
1905.91
1808.49
1711.06
1613.64
1516.22
1418.8
1321.37
1223.95
1126.52
1029.09
931.645
834.17
736.674
639.278
541.882
443.714
345.834
251.124
146.687
44.2986
9710.69
9515.88
9477.83
9401.94
9293.35
9196.74
9106.33
9012.6
8916.57
8820.26
8723.88
8627.23
8530.28
8433.15
8335.88
8238.54
8141.14
8043.71
7946.26
7848.81
7751.35
7653.9
7556.45
7459
7361.56
7264.12
7166.69
7069.26
6971.83
6874.41
6776.98
6679.56
6582.13
6484.71
6387.29
6289.87
6192.44
6095.02
5997.6
5900.18
5802.76
5705.34
5607.92
5510.49
5413.07
5315.65
5218.23
5120.81
5023.39
4925.97
4828.55
4731.13
4633.7
4536.28
4438.86
4341.44
4244.02
4146.6
4049.18
3951.76
3854.33
3756.91
3659.49
3562.07
3464.65
3367.23
3269.81
3172.39
3074.96
2977.54
2880.12
2782.7
2685.28
2587.86
2490.44
2393.02
2295.59
2198.17
2100.75
2003.33
1905.91
1808.49
1711.07
1613.64
1516.22
1418.8
1321.38
1223.95
1126.52
1029.1
931.661
834.197
736.716
639.341
541.981
443.874
346.046
251.424
147.744
45.1799
9704.69
9510.92
9472.12
9396
9287.88
9191.6
9101.47
9008.21
8912.75
8817
8721.15
8624.98
8528.47
8431.7
8334.75
8237.66
8140.46
8043.2
7945.88
7848.52
7751.14
7653.74
7556.33
7458.92
7361.5
7264.08
7166.66
7069.24
6971.82
6874.4
6776.97
6679.55
6582.13
6484.71
6387.29
6289.87
6192.44
6095.02
5997.6
5900.18
5802.76
5705.34
5607.92
5510.49
5413.07
5315.65
5218.23
5120.81
5023.39
4925.97
4828.55
4731.13
4633.7
4536.28
4438.86
4341.44
4244.02
4146.6
4049.18
3951.76
3854.33
3756.91
3659.49
3562.07
3464.65
3367.23
3269.81
3172.39
3074.96
2977.54
2880.12
2782.7
2685.28
2587.86
2490.44
2393.02
2295.59
2198.17
2100.75
2003.33
1905.91
1808.49
1711.07
1613.65
1516.22
1418.8
1321.38
1223.96
1126.53
1029.11
931.679
834.226
736.762
639.409
542.087
444.049
346.278
251.747
148.908
46.1544
9697.43
9505.19
9465.52
9389.24
9281.82
9186
9096.24
9003.52
8908.7
8813.57
8718.28
8622.62
8526.56
8430.19
8333.56
8236.73
8139.76
8042.66
7945.47
7848.22
7750.92
7653.58
7556.22
7458.84
7361.44
7264.04
7166.63
7069.22
6971.8
6874.38
6776.97
6679.55
6582.13
6484.71
6387.29
6289.86
6192.44
6095.02
5997.6
5900.18
5802.76
5705.34
5607.92
5510.49
5413.07
5315.65
5218.23
5120.81
5023.39
4925.97
4828.55
4731.13
4633.7
4536.28
4438.86
4341.44
4244.02
4146.6
4049.18
3951.76
3854.33
3756.91
3659.49
3562.07
3464.65
3367.23
3269.81
3172.39
3074.96
2977.54
2880.12
2782.7
2685.28
2587.86
2490.44
2393.02
2295.59
2198.17
2100.75
2003.33
1905.91
1808.49
1711.07
1613.65
1516.23
1418.8
1321.38
1223.96
1126.54
1029.12
931.698
834.256
736.81
639.482
542.198
444.233
346.525
252.081
150.146
47.1963
9688.85
9498.75
9458.11
9381.78
9275.32
9180.1
9090.78
8998.68
8904.56
8810.07
8715.37
8620.23
8524.63
8428.65
8332.35
8235.8
8139.04
8042.11
7945.06
7847.91
7750.69
7653.41
7556.1
7458.75
7361.38
7263.99
7166.6
7069.2
6971.79
6874.37
6776.96
6679.54
6582.12
6484.7
6387.28
6289.86
6192.44
6095.02
5997.6
5900.18
5802.76
5705.34
5607.92
5510.49
5413.07
5315.65
5218.23
5120.81
5023.39
4925.97
4828.55
4731.12
4633.7
4536.28
4438.86
4341.44
4244.02
4146.6
4049.18
3951.76
3854.33
3756.91
3659.49
3562.07
3464.65
3367.23
3269.81
3172.39
3074.96
2977.54
2880.12
2782.7
2685.28
2587.86
2490.44
2393.02
2295.59
2198.17
2100.75
2003.33
1905.91
1808.49
1711.07
1613.65
1516.23
1418.81
1321.39
1223.97
1126.55
1029.13
931.717
834.287
736.86
639.555
542.309
444.422
346.784
252.414
151.432
48.2908
9678.99
9491.79
9450.05
9373.82
9268.6
9174.1
9085.28
8993.85
8900.45
8806.62
8712.5
8617.88
8522.74
8427.14
8331.17
8234.88
8138.33
8041.58
7944.66
7847.61
7750.47
7653.25
7555.98
7458.66
7361.32
7263.95
7166.57
7069.17
6971.77
6874.36
6776.95
6679.54
6582.12
6484.7
6387.28
6289.86
6192.44
6095.02
5997.6
5900.18
5802.76
5705.34
5607.92
5510.49
5413.07
5315.65
5218.23
5120.81
5023.39
4925.97
4828.55
4731.12
4633.7
4536.28
4438.86
4341.44
4244.02
4146.6
4049.18
3951.76
3854.33
3756.91
3659.49
3562.07
3464.65
3367.23
3269.81
3172.39
3074.96
2977.54
2880.12
2782.7
2685.28
2587.86
2490.44
2393.02
2295.59
2198.17
2100.75
2003.33
1905.91
1808.49
1711.07
1613.65
1516.23
1418.81
1321.39
1223.97
1126.56
1029.15
931.736
834.318
736.909
639.629
542.418
444.611
347.05
252.738
152.775
49.4491
9668.02
9484.58
9441.62
9365.63
9261.93
9168.24
9079.94
8989.21
8896.53
8803.34
8709.78
8615.66
8520.95
8425.72
8330.04
8234
8137.66
8041.07
7944.27
7847.32
7750.26
7653.09
7555.86
7458.58
7361.26
7263.91
7166.54
7069.15
6971.76
6874.35
6776.94
6679.53
6582.12
6484.7
6387.28
6289.86
6192.44
6095.02
5997.6
5900.18
5802.76
5705.34
5607.92
5510.49
5413.07
5315.65
5218.23
5120.81
5023.39
4925.97
4828.55
4731.12
4633.7
4536.28
4438.86
4341.44
4244.02
4146.6
4049.18
3951.76
3854.33
3756.91
3659.49
3562.07
3464.65
3367.23
3269.81
3172.39
3074.96
2977.54
2880.12
2782.7
2685.28
2587.86
2490.44
2393.02
2295.59
2198.17
2100.75
2003.33
1905.91
1808.49
1711.07
1613.65
1516.23
1418.81
1321.39
1223.98
1126.56
1029.16
931.754
834.347
736.957
639.698
542.519
444.795
347.32
253.05
154.212
50.7083
9656.31
9477.54
9433.21
9357.58
9255.61
9162.79
9075
8984.95
8892.95
8800.36
8707.31
8613.64
8519.32
8424.41
8329.02
8233.21
8137.05
8040.6
7943.92
7847.06
7750.06
7652.95
7555.76
7458.51
7361.21
7263.87
7166.51
7069.13
6971.74
6874.34
6776.94
6679.53
6582.11
6484.7
6387.28
6289.86
6192.44
6095.02
5997.6
5900.18
5802.76
5705.34
5607.92
5510.49
5413.07
5315.65
5218.23
5120.81
5023.39
4925.97
4828.55
4731.12
4633.7
4536.28
4438.86
4341.44
4244.02
4146.6
4049.18
3951.76
3854.33
3756.91
3659.49
3562.07
3464.65
3367.23
3269.81
3172.39
3074.96
2977.54
2880.12
2782.7
2685.28
2587.86
2490.44
2393.02
2295.6
2198.17
2100.75
2003.33
1905.91
1808.49
1711.07
1613.65
1516.23
1418.81
1321.4
1223.98
1126.57
1029.17
931.77
834.374
737.002
639.763
542.611
444.969
347.591
253.351
155.811
52.1323
9644.44
9471.21
9425.32
9350.1
9249.99
9158
9070.68
8981.23
8889.85
8797.78
8705.18
8611.89
8517.9
8423.29
8328.13
8232.51
8136.51
8040.19
7943.61
7846.83
7749.89
7652.82
7555.67
7458.44
7361.16
7263.84
7166.49
7069.12
6971.73
6874.34
6776.93
6679.52
6582.11
6484.69
6387.28
6289.86
6192.44
6095.02
5997.6
5900.18
5802.76
5705.34
5607.92
5510.49
5413.07
5315.65
5218.23
5120.81
5023.39
4925.97
4828.55
4731.12
4633.7
4536.28
4438.86
4341.44
4244.02
4146.6
4049.18
3951.76
3854.33
3756.91
3659.49
3562.07
3464.65
3367.23
3269.81
3172.39
3074.96
2977.54
2880.12
2782.7
2685.28
2587.86
2490.44
2393.02
2295.6
2198.17
2100.75
2003.33
1905.91
1808.49
1711.07
1613.65
1516.23
1418.82
1321.4
1223.99
1126.58
1029.18
931.785
834.398
737.041
639.82
542.689
445.126
347.855
253.637
157.616
53.7687
9633.24
9466.21
9418.49
9343.64
9245.39
9154.14
9067.17
8978.22
8887.36
8795.71
8703.46
8610.48
8516.76
8422.37
8327.4
8231.94
8136.07
8039.85
7943.35
7846.64
7749.75
7652.72
7555.59
7458.38
7361.12
7263.81
7166.47
7069.1
6971.72
6874.33
6776.93
6679.52
6582.11
6484.69
6387.28
6289.86
6192.44
6095.02
5997.6
5900.18
5802.76
5705.34
5607.92
5510.49
5413.07
5315.65
5218.23
5120.81
5023.39
4925.97
4828.55
4731.12
4633.7
4536.28
4438.86
4341.44
4244.02
4146.6
4049.18
3951.76
3854.33
3756.91
3659.49
3562.07
3464.65
3367.23
3269.81
3172.39
3074.96
2977.54
2880.12
2782.7
2685.28
2587.86
2490.44
2393.02
2295.6
2198.17
2100.75
2003.33
1905.91
1808.49
1711.07
1613.65
1516.23
1418.82
1321.4
1223.99
1126.58
1029.18
931.796
834.417
737.075
639.867
542.751
445.262
348.099
253.892
159.43
55.4409
9623.69
9463.14
9413.25
9338.63
9242.08
9151.42
9064.65
8976.06
8885.57
8794.22
8702.21
8609.45
8515.92
8421.69
8326.87
8231.52
8135.74
8039.6
7943.16
7846.49
7749.64
7652.64
7555.53
7458.34
7361.09
7263.79
7166.45
7069.09
6971.71
6874.32
6776.92
6679.52
6582.11
6484.69
6387.28
6289.86
6192.44
6095.02
5997.6
5900.18
5802.76
5705.34
5607.92
5510.49
5413.07
5315.65
5218.23
5120.81
5023.39
4925.97
4828.55
4731.12
4633.7
4536.28
4438.86
4341.44
4244.02
4146.6
4049.18
3951.76
3854.33
3756.91
3659.49
3562.07
3464.65
3367.23
3269.81
3172.39
3074.96
2977.54
2880.12
2782.7
2685.28
2587.86
2490.44
2393.02
2295.6
2198.17
2100.75
2003.33
1905.91
1808.49
1711.07
1613.65
1516.24
1418.82
1321.4
1223.99
1126.59
1029.19
931.805
834.432
737.102
639.903
542.794
445.372
348.312
254.092
160.916
56.84
9616.74
9462.4
9409.99
9335.33
9240.25
9149.94
9063.2
8974.8
8884.54
8793.36
8701.49
8608.84
8515.42
8421.29
8326.54
8231.26
8135.54
8039.44
7943.04
7846.4
7749.57
7652.59
7555.49
7458.31
7361.07
7263.77
7166.44
7069.08
6971.71
6874.32
6776.92
6679.52
6582.11
6484.69
6387.28
6289.86
6192.44
6095.02
5997.6
5900.18
5802.76
5705.34
5607.92
5510.49
5413.07
5315.65
5218.23
5120.81
5023.39
4925.97
4828.55
4731.12
4633.7
4536.28
4438.86
4341.44
4244.02
4146.6
4049.18
3951.76
3854.33
3756.91
3659.49
3562.07
3464.65
3367.23
3269.81
3172.39
3074.96
2977.54
2880.12
2782.7
2685.28
2587.86
2490.44
2393.02
2295.6
2198.17
2100.75
2003.33
1905.91
1808.49
1711.07
1613.65
1516.24
1418.82
1321.4
1223.99
1126.59
1029.19
931.811
834.443
737.12
639.926
542.818