/*--------------------------------*- C++ -*----------------------------------*\
| =========                 |                                                 |
| \\      /  F ield         | foam-extend: Open Source CFD                    |
|  \\    /   O peration     | Version:     5.0                                |
|   \\  /    A nd           | Web:         http://www.foam-extend.org         |
|    \\/     M anipulation  |                                                 |
\*---------------------------------------------------------------------------*/
FoamFile
{
    version     2.0;
    format      ascii;
    class       surfaceScalarField;
    location    "0.025";
    object      phi;
}
// * * * * * * * * * * * * * * * * * * * * * * * * * * * * * * * * * * * * * //

dimensions      [0 3 -1 0 0 0 0];

internalField   nonuniform List<scalar> 
7860
(
0.00474489
0.000255105
0.00457347
0.000171421
0.00545859
-0.000885119
0.00649503
-0.00103644
0.00718927
-0.000694236
0.00771535
-0.000526084
0.00819643
-0.000481073
0.00862555
-0.000429124
0.00899012
-0.000364565
0.00929613
-0.00030602
0.00955334
-0.000257206
0.00976789
-0.000214547
0.0099443
-0.000176414
0.0100873
-0.000142969
0.0102019
-0.000114614
0.0102925
-9.06586e-05
0.0103634
-7.08382e-05
0.0104181
-5.46927e-05
0.0104598
-4.17622e-05
0.0104914
-3.15536e-05
0.010515
-2.3599e-05
0.0105325
-1.74828e-05
0.0105453
-1.28382e-05
0.0105547
-9.34741e-06
0.0105614
-6.7514e-06
0.0105662
-4.83852e-06
0.0105697
-3.4435e-06
0.0105721
-2.43412e-06
0.0105738
-1.7094e-06
0.010575
-1.19258e-06
0.0105759
-8.27317e-07
0.0105764
-5.70609e-07
0.0105768
-3.91693e-07
0.0105771
-2.6718e-07
0.0105773
-1.81129e-07
0.0105774
-1.22432e-07
0.0105775
-8.24194e-08
0.0105775
-5.51819e-08
0.0105776
-3.65891e-08
0.0105776
-2.42236e-08
0.0105776
-1.60953e-08
0.0105776
-1.04933e-08
0.0105776
-6.68204e-09
0.0105776
-4.22109e-09
0.0105776
-2.67592e-09
0.0105776
-1.68093e-09
0.0105776
-8.04346e-10
0.0105776
-3.31226e-10
0.0105776
-2.25543e-10
0.0105776
-1.08781e-09
0.0105776
-6.13461e-09
0.0105776
3.37118e-10
0.0105776
6.35716e-09
0.0105776
9.03079e-10
0.0105776
-2.02063e-10
0.0105776
8.22578e-11
0.0105776
2.92986e-10
0.0105776
7.48665e-11
0.0105776
1.1881e-10
0.0105776
7.0663e-11
0.0105776
-3.84887e-10
0.0105776
1.0579e-10
0.0105776
5.78456e-10
0.0105776
1.4088e-10
0.0105776
1.23792e-10
0.0105776
2.08689e-10
0.0105776
4.07482e-10
0.0105776
5.35683e-10
0.0105776
7.73217e-10
0.0105776
1.13142e-09
0.0105776
1.63568e-09
0.0105776
2.40592e-09
0.0105776
3.38518e-09
0.0105776
4.85919e-09
0.0105776
6.90474e-09
0.0105776
9.62019e-09
0.0105776
1.3448e-08
0.0105776
1.85598e-08
0.0105776
2.54816e-08
0.0105775
3.50104e-08
0.0105775
4.78639e-08
0.0105774
6.54464e-08
0.0105773
9.01072e-08
0.0105772
1.2507e-07
0.010577
1.75789e-07
0.0105768
2.51914e-07
0.0105764
3.69565e-07
0.0105758
5.54029e-07
0.010575
8.40685e-07
0.0105737
1.29102e-06
0.0105716
2.07838e-06
0.0105681
3.57038e-06
0.0105623
5.78447e-06
0.0105547
7.56864e-06
0.0105437
1.10089e-05
0.0105151
2.86061e-05
0.0104635
5.15729e-05
0.0104415
2.20224e-05
0.0105792
-0.000137655
-0.000137924
0.00885183
-0.00359672
0.0107035
-0.00168023
0.0129928
-0.00317446
0.0153839
-0.00342749
0.0173011
-0.00261151
0.0188336
-0.00205852
0.0201462
-0.00179368
0.0212819
-0.00156484
0.0222456
-0.00132824
0.0230522
-0.00111269
0.0237227
-0.000927649
0.0242749
-0.000766743
0.0247244
-0.00062592
0.0250857
-0.000504318
0.0253728
-0.000401689
0.0255981
-0.000315946
0.0257728
-0.000245567
0.0259068
-0.00018869
0.0260085
-0.00014343
0.0260848
-0.00010791
0.0261416
-8.03891e-05
0.0261835
-5.9336e-05
0.0262141
-4.34216e-05
0.0262362
-3.15155e-05
0.0262522
-2.26924e-05
0.0262636
-1.62174e-05
0.0262716
-1.15094e-05
0.0262773
-8.11406e-06
0.0262813
-5.68387e-06
0.026284
-3.95657e-06
0.026286
-2.73831e-06
0.0262873
-1.88449e-06
0.0262882
-1.29054e-06
0.0262888
-8.78604e-07
0.0262892
-5.94608e-07
0.0262895
-4.01141e-07
0.0262897
-2.69548e-07
0.0262898
-1.80051e-07
0.0262899
-1.19326e-07
0.0262899
-7.88045e-08
0.02629
-5.19749e-08
0.02629
-3.38929e-08
0.02629
-2.17294e-08
0.02629
-1.37135e-08
0.02629
-8.49843e-09
0.02629
-5.24995e-09
0.02629
-2.73877e-09
0.02629
-1.1264e-09
0.02629
-9.54588e-10
0.02629
-3.54931e-09
0.02629
-1.58974e-08
0.02629
8.60269e-10
0.02629
1.66392e-08
0.02629
3.28172e-09
0.02629
1.21625e-10
0.02629
2.00761e-10
0.02629
5.48273e-10
0.02629
2.80293e-10
0.02629
4.19063e-10
0.02629
2.40525e-10
0.02629
-8.09571e-10
0.02629
1.98763e-10
0.02629
1.28761e-09
0.02629
4.35459e-10
0.02629
3.2932e-10
0.02629
6.27506e-10
0.02629
1.23811e-09
0.02629
1.68565e-09
0.02629
2.38769e-09
0.02629
3.52978e-09
0.02629
5.29386e-09
0.02629
7.87156e-09
0.02629
1.12965e-08
0.02629
1.61628e-08
0.02629
2.29768e-08
0.02629
3.23339e-08
0.0262899
4.53254e-08
0.0262899
6.28871e-08
0.0262898
8.66577e-08
0.0262897
1.19176e-07
0.0262896
1.63133e-07
0.0262895
2.23068e-07
0.0262893
3.06496e-07
0.026289
4.24033e-07
0.0262885
5.93097e-07
0.026288
8.43816e-07
0.0262871
1.22633e-06
0.0262858
1.82094e-06
0.0262839
2.75312e-06
0.026281
4.24707e-06
0.0262762
6.79563e-06
0.0262686
1.12506e-05
0.0262565
1.78578e-05
0.0262385
2.55166e-05
0.026209
4.05442e-05
0.0261522
8.54487e-05
0.0260694
0.00013433
0.0260099
8.15276e-05
0.025983
-0.000110763
-0.000134524
0.0103985
-0.00899519
0.0141965
-0.00547831
0.0176374
-0.00661533
0.0208518
-0.0066419
0.0235806
-0.0053403
0.0258505
-0.00432838
0.0277668
-0.00371004
0.0293909
-0.00318893
0.0307534
-0.00269077
0.0318849
-0.00224412
0.0328154
-0.00185818
0.0335726
-0.00152395
0.0341822
-0.00123552
0.0346675
-0.000989598
0.0350491
-0.000783332
0.0353459
-0.000612676
0.035574
-0.000473729
0.0357476
-0.000362271
0.0358783
-0.000274154
0.0359758
-0.000205407
0.0360479
-0.000152431
0.0361006
-0.000112108
0.036139
-8.17682e-05
0.0361666
-5.91651e-05
0.0361864
-4.24757e-05
0.0362005
-3.0274e-05
0.0362104
-2.143e-05
0.0362174
-1.50698e-05
0.0362222
-1.05309e-05
0.0362256
-7.31484e-06
0.0362279
-5.05179e-06
0.0362295
-3.46959e-06
0.0362305
-2.3712e-06
0.0362313
-1.61152e-06
0.0362318
-1.08899e-06
0.0362321
-7.33437e-07
0.0362323
-4.92023e-07
0.0362325
-3.28041e-07
0.0362326
-2.17212e-07
0.0362326
-1.43139e-07
0.0362327
-9.39161e-08
0.0362327
-6.12406e-08
0.0362327
-3.94379e-08
0.0362327
-2.48417e-08
0.0362327
-1.51986e-08
0.0362328
-9.28399e-09
0.0362328
-5.04294e-09
0.0362328
-2.01721e-09
0.0362328
-1.61124e-09
0.0362328
-5.81498e-09
0.0362328
-2.62692e-08
0.0362328
1.19132e-09
0.0362328
2.75104e-08
0.0362328
5.80012e-09
0.0362328
7.29624e-10
0.0362328
1.14357e-10
0.0362328
3.85292e-10
0.0362328
3.54969e-10
0.0362328
6.90478e-10
0.0362328
5.01368e-10
0.0362328
-8.26645e-10
0.0362328
1.05332e-10
0.0362328
1.327e-09
0.0362328
4.63096e-10
0.0362328
3.66447e-10
0.0362328
9.21121e-10
0.0362328
1.99428e-09
0.0362328
2.82158e-09
0.0362328
3.99199e-09
0.0362328
6.07832e-09
0.0362328
9.45481e-09
0.0362328
1.42346e-08
0.0362327
2.0724e-08
0.0362327
2.97792e-08
0.0362327
4.2493e-08
0.0362327
6.0281e-08
0.0362326
8.48703e-08
0.0362326
1.18434e-07
0.0362325
1.63895e-07
0.0362324
2.25832e-07
0.0362323
3.09831e-07
0.0362321
4.24182e-07
0.0362318
5.82463e-07
0.0362314
8.04357e-07
0.0362309
1.12125e-06
0.0362301
1.58662e-06
0.0362291
2.28936e-06
0.0362275
3.37412e-06
0.0362252
5.07418e-06
0.0362216
7.79744e-06
0.0362161
1.23519e-05
0.0362073
2.00783e-05
0.0361933
3.18449e-05
0.0361713
4.75316e-05
0.0361353
7.65281e-05
0.0360741
0.000146637
0.0359821
0.000226371
0.0358533
0.000210256
0.035481
0.000261555
0.000158056
0.0105228
-0.014518
0.0152629
-0.0102184
0.019353
-0.0107054
0.0229649
-0.0102538
0.0261027
-0.00847809
0.0287848
-0.00701047
0.0310527
-0.00597802
0.0329579
-0.0050941
0.0345455
-0.00427837
0.0358559
-0.00355454
0.0369256
-0.00292784
0.0377882
-0.00238653
0.0384769
-0.00192424
0.0390211
-0.00153383
0.0394455
-0.00120769
0.0397729
-0.000940076
0.0400228
-0.000723661
0.0402117
-0.000551119
0.040353
-0.000415466
0.0404578
-0.000310179
0.0405348
-0.00022943
0.0405909
-0.000168226
0.0406314
-0.000122337
0.0406606
-8.82719e-05
0.0406813
-6.3212e-05
0.040696
-4.49484e-05
0.0407063
-3.17465e-05
0.0407135
-2.22767e-05
0.0407185
-1.55361e-05
0.040722
-1.07715e-05
0.0407243
-7.42598e-06
0.0407259
-5.09161e-06
0.0407271
-3.47378e-06
0.0407278
-2.35746e-06
0.0407283
-1.59147e-06
0.0407286
-1.07025e-06
0.0407289
-7.16677e-07
0.040729
-4.77171e-07
0.0407291
-3.15709e-07
0.0407292
-2.07706e-07
0.0407292
-1.35722e-07
0.0407292
-8.83891e-08
0.0407293
-5.70959e-08
0.0407293
-3.59193e-08
0.0407293
-2.18454e-08
0.0407293
-1.31516e-08
0.0407293
-7.21875e-09
0.0407293
-2.8764e-09
0.0407293
-1.84507e-09
0.0407293
-6.88878e-09
0.0407293
-3.6282e-08
0.0407293
1.21775e-09
0.0407293
3.7936e-08
0.0407293
7.5214e-09
0.0407293
1.31294e-09
0.0407293
-1.05327e-10
0.0407293
-1.79333e-10
0.0407293
2.40491e-10
0.0407293
7.8729e-10
0.0407293
7.11482e-10
0.0407293
-1.37644e-10
0.0407293
-3.97616e-11
0.0407293
4.01377e-10
0.0407293
1.1618e-10
0.0407293
2.51935e-10
0.0407293
9.89615e-10
0.0407293
2.41468e-09
0.0407293
3.69585e-09
0.0407293
5.35166e-09
0.0407293
8.42655e-09
0.0407293
1.34289e-08
0.0407293
2.04492e-08
0.0407293
3.01538e-08
0.0407293
4.36235e-08
0.0407292
6.258e-08
0.0407292
8.93671e-08
0.0407292
1.26364e-07
0.0407291
1.77149e-07
0.040729
2.46184e-07
0.0407289
3.39945e-07
0.0407288
4.67377e-07
0.0407286
6.40983e-07
0.0407283
8.80143e-07
0.0407278
1.21414e-06
0.0407273
1.68866e-06
0.0407265
2.38018e-06
0.0407254
3.41581e-06
0.0407237
5.00422e-06
0.0407213
7.4852e-06
0.0407177
1.14386e-05
0.0407121
1.79523e-05
0.0407033
2.88595e-05
0.0406892
4.59039e-05
0.0406666
7.01664e-05
0.0406306
0.000112542
0.0405729
0.000204289
0.0404781
0.000321188
0.0402972
0.000391215
0.0397018
0.000856958
0.000630602
0.00972837
-0.0192464
0.0144196
-0.0149096
0.018521
-0.0148068
0.0221151
-0.0138479
0.0253017
-0.0116647
0.0280834
-0.00979221
0.0304582
-0.00835277
0.0324563
-0.00709223
0.0341202
-0.00594223
0.0354905
-0.0049249
0.0366047
-0.004042
0.0374994
-0.00328129
0.0382098
-0.0026346
0.0387673
-0.00209133
0.0391997
-0.0016401
0.0395315
-0.00127184
0.0397834
-0.000975571
0.0399728
-0.000740499
0.0401138
-0.000556513
0.0402179
-0.00041429
0.0402941
-0.00030562
0.0403494
-0.000223541
0.0403893
-0.000162184
0.0404178
-0.000116764
0.040438
-8.34453e-05
0.0404523
-5.92236e-05
0.0404623
-4.17551e-05
0.0404692
-2.92506e-05
0.0404741
-2.03679e-05
0.0404774
-1.41007e-05
0.0404797
-9.7076e-06
0.0404812
-6.6472e-06
0.0404823
-4.52877e-06
0.040483
-3.07022e-06
0.0404835
-2.07124e-06
0.0404838
-1.391e-06
0.040484
-9.29996e-07
0.0404842
-6.18561e-07
0.0404843
-4.09057e-07
0.0404843
-2.68739e-07
0.0404844
-1.7526e-07
0.0404844
-1.13772e-07
0.0404844
-7.3412e-08
0.0404844
-4.63077e-08
0.0404844
-2.81285e-08
0.0404844
-1.66256e-08
0.0404844
-9.01649e-09
0.0404844
-3.60654e-09
0.0404844
-1.58306e-09
0.0404844
-6.27841e-09
0.0404844
-4.40228e-08
0.0404844
1.02496e-09
0.0404844
4.61183e-08
0.0404844
7.96877e-09
0.0404844
1.66475e-09
0.0404844
-4.55957e-10
0.0404844
-9.92607e-10
0.0404844
-2.2044e-11
0.0404844
7.201e-10
0.0404844
8.64369e-10
0.0404844
9.59759e-10
0.0404844
-2.46621e-10
0.0404844
-1.09827e-09
0.0404844
-4.5486e-10
0.0404844
6.02468e-11
0.0404844
8.57383e-10
0.0404844
2.37813e-09
0.0404844
4.26336e-09
0.0404844
6.57873e-09
0.0404844
1.05594e-08
0.0404844
1.69416e-08
0.0404844
2.60933e-08
0.0404844
3.89263e-08
0.0404844
5.6789e-08
0.0404844
8.20015e-08
0.0404844
1.17642e-07
0.0404843
1.66961e-07
0.0404843
2.34878e-07
0.0404842
3.27454e-07
0.0404841
4.53189e-07
0.0404839
6.24301e-07
0.0404837
8.57723e-07
0.0404834
1.178e-06
0.040483
1.6238e-06
0.0404824
2.25535e-06
0.0404816
3.1703e-06
0.0404805
4.53147e-06
0.0404789
6.60749e-06
0.0404766
9.83669e-06
0.0404731
1.49548e-05
0.0404677
2.33014e-05
0.0404594
3.71825e-05
0.040446
5.92555e-05
0.0404244
9.17586e-05
0.0403907
0.00014633
0.0403381
0.000256845
0.0402479
0.000411425
0.040061
0.000578073
0.039489
0.00142892
0.00107406
0.00841326
-0.0226596
0.0123309
-0.0188273
0.0158903
-0.0183662
0.0190799
-0.0170375
0.0219969
-0.0145817
0.0246059
-0.0124011
0.0268675
-0.0106144
0.0287865
-0.00901122
0.0303919
-0.00754768
0.031716
-0.00624895
0.0327914
-0.00511747
0.0336533
-0.00414321
0.0343352
-0.0033164
0.0348679
-0.00262409
0.0352795
-0.00205165
0.0355939
-0.00158627
0.0358316
-0.0012133
0.0360096
-0.000918503
0.0361417
-0.000688599
0.0362388
-0.000511427
0.0363097
-0.000376458
0.0363609
-0.000274806
0.0363978
-0.000199006
0.036424
-0.000143022
0.0364426
-0.000102043
0.0364557
-7.23131e-05
0.0364649
-5.09118e-05
0.0364712
-3.56178e-05
0.0364756
-2.47708e-05
0.0364787
-1.71288e-05
0.0364807
-1.17793e-05
0.0364822
-8.05741e-06
0.0364831
-5.48378e-06
0.0364838
-3.71439e-06
0.0364842
-2.50419e-06
0.0364845
-1.6801e-06
0.0364847
-1.12184e-06
0.0364848
-7.45523e-07
0.0364849
-4.9282e-07
0.0364849
-3.23428e-07
0.036485
-2.10646e-07
0.036485
-1.36383e-07
0.036485
-8.77535e-08
0.036485
-5.53667e-08
0.036485
-3.3637e-08
0.036485
-1.96513e-08
0.036485
-1.04282e-08
0.036485
-3.95729e-09
0.036485
-6.94886e-10
0.036485
-3.61672e-09
0.036485
-4.46055e-08
0.036485
9.00551e-10
0.036485
4.72257e-08
0.036485
6.3545e-09
0.036485
1.25398e-09
0.036485
-8.72661e-10
0.036485
-1.5981e-09
0.036485
-3.21895e-10
0.036485
5.26935e-10
0.036485
8.65867e-10
0.036485
1.6049e-09
0.036485
-5.00334e-10
0.036485
-2.28384e-09
0.036485
-1.07648e-09
0.036485
-2.56631e-10
0.036485
5.7476e-10
0.036485
2.10839e-09
0.036485
4.49415e-09
0.036485
7.46883e-09
0.036485
1.23785e-08
0.036485
1.99335e-08
0.036485
3.09106e-08
0.036485
4.66384e-08
0.036485
6.86202e-08
0.036485
9.9688e-08
0.036485
1.43537e-07
0.0364849
2.04341e-07
0.0364849
2.88249e-07
0.0364848
4.02872e-07
0.0364847
5.58732e-07
0.0364846
7.71023e-07
0.0364843
1.06069e-06
0.0364841
1.45764e-06
0.0364837
2.00877e-06
0.0364832
2.78716e-06
0.0364824
3.9099e-06
0.0364814
5.57139e-06
0.0364799
8.093e-06
0.0364777
1.19994e-05
0.0364745
1.81629e-05
0.0364697
2.81445e-05
0.0364622
4.467e-05
0.0364502
7.12166e-05
0.0364309
0.000111088
0.0364008
0.000176411
0.0363551
0.000302589
0.0362774
0.000489126
0.0361223
0.000733176
0.0357596
0.00179157
0.0013313
0.00692208
-0.0245817
0.00965749
-0.0215627
0.0123048
-0.0210136
0.0147974
-0.01953
0.0171933
-0.0169776
0.0194134
-0.0146212
0.0213846
-0.0125856
0.0230828
-0.0107094
0.0245162
-0.00898107
0.0257041
-0.0074368
0.026671
-0.00608439
0.0274459
-0.00491814
0.0280578
-0.00392829
0.0285346
-0.00310089
0.0289017
-0.00241877
0.0291812
-0.00186574
0.0293917
-0.00142384
0.0295488
-0.00107558
0.029665
-0.000804754
0.0297501
-0.000596579
0.029812
-0.000438365
0.0298567
-0.000319478
0.0298887
-0.000231006
0.0299115
-0.000165784
0.0299276
-0.000118128
0.0299389
-8.36082e-05
0.0299467
-5.87971e-05
0.0299522
-4.10902e-05
0.029956
-2.85484e-05
0.0299586
-1.97226e-05
0.0299604
-1.3551e-05
0.0299616
-9.26184e-06
0.0299624
-6.29842e-06
0.0299629
-4.26307e-06
0.0299633
-2.87228e-06
0.0299635
-1.92555e-06
0.0299637
-1.28458e-06
0.0299638
-8.52957e-07
0.0299639
-5.63505e-07
0.0299639
-3.69605e-07
0.029964
-2.40485e-07
0.029964
-1.55394e-07
0.029964
-9.96571e-08
0.029964
-6.27406e-08
0.029964
-3.80789e-08
0.029964
-2.1978e-08
0.029964
-1.13932e-08
0.029964
-3.97227e-09
0.029964
8.61864e-10
0.029964
1.77459e-09
0.029964
-2.65233e-08
0.029964
9.93519e-10
0.029964
2.97592e-08
0.029964
1.78266e-09
0.029964
-3.63698e-12
0.029964
-1.30601e-09
0.029964
-1.86994e-09
0.029964
-5.87977e-10
0.029964
2.10646e-10
0.029964
6.88261e-10
0.029964
1.64259e-09
0.029964
-8.10978e-10
0.029964
-2.97721e-09
0.029964
-1.63607e-09
0.029964
-6.9786e-10
0.029964
2.15965e-10
0.029964
1.73134e-09
0.029964
4.36436e-09
0.029964
7.96569e-09
0.029964
1.3705e-08
0.029964
2.22464e-08
0.029964
3.47698e-08
0.029964
5.2979e-08
0.029964
7.85652e-08
0.029964
1.14771e-07
0.029964
1.65821e-07
0.0299639
2.36655e-07
0.0299639
3.3453e-07
0.0299638
4.68575e-07
0.0299637
6.51085e-07
0.0299636
8.99788e-07
0.0299634
1.23915e-06
0.0299632
1.70396e-06
0.0299628
2.34815e-06
0.0299624
3.25549e-06
0.0299617
4.55958e-06
0.0299608
6.4811e-06
0.0299595
9.38469e-06
0.0299576
1.38659e-05
0.0299549
2.09113e-05
0.0299508
3.22676e-05
0.0299444
5.10003e-05
0.0299344
8.12441e-05
0.0299182
0.000127283
0.0298929
0.000201727
0.0298554
0.000340048
0.0297953
0.000549241
0.0296886
0.000839898
0.0295891
0.00189105
0.00135982
0.00550928
-0.025091
0.00693848
-0.0229919
0.00850182
-0.0225769
0.0101307
-0.0211589
0.0118452
-0.0186922
0.0135279
-0.016304
0.0150775
-0.0141352
0.0164455
-0.0120774
0.0176187
-0.0101543
0.0185998
-0.00841796
0.0194025
-0.00688709
0.0200471
-0.00556267
0.0205558
-0.004437
0.0209514
-0.00349652
0.0212553
-0.00272261
0.0214858
-0.00209634
0.021659
-0.00159698
0.0217877
-0.00120431
0.0218826
-0.000899604
0.0219519
-0.000665881
0.0220021
-0.000488584
0.0220382
-0.000355604
0.022064
-0.000256809
0.0220823
-0.00018409
0.0220952
-0.000131029
0.0221043
-9.26465e-05
0.0221106
-6.50927e-05
0.0221149
-4.54503e-05
0.0221179
-3.1552e-05
0.02212
-2.17809e-05
0.0221214
-1.4955e-05
0.0221223
-1.0215e-05
0.022123
-6.94205e-06
0.0221234
-4.69586e-06
0.0221237
-3.16191e-06
0.0221239
-2.11842e-06
0.022124
-1.4123e-06
0.0221241
-9.36969e-07
0.0221242
-6.18673e-07
0.0221242
-4.05697e-07
0.0221242
-2.63695e-07
0.0221242
-1.70116e-07
0.0221243
-1.08744e-07
0.0221243
-6.82236e-08
0.0221243
-4.12709e-08
0.0221243
-2.33343e-08
0.0221243
-1.18824e-08
0.0221243
-3.83441e-09
0.0221243
2.7397e-09
0.0221243
9.64788e-09
0.0221242
3.8024e-08
0.0221242
1.40283e-09
0.0221243
-3.40498e-08
0.0221243
-5.56534e-09
0.0221243
-1.69578e-09
0.0221243
-1.75857e-09
0.0221243
-1.79294e-09
0.0221243
-7.83225e-10
0.0221243
-2.66408e-10
0.0221243
3.58476e-10
0.0221243
1.23564e-09
0.0221243
-1.15605e-09
0.0221243
-3.31424e-09
0.0221243
-2.1282e-09
0.0221243
-1.21641e-09
0.0221243
-1.14226e-10
0.0221243
1.25082e-09
0.0221243
3.85006e-09
0.0221243
8.05288e-09
0.0221243
1.44178e-08
0.0221243
2.37689e-08
0.0221243
3.75457e-08
0.0221243
5.76895e-08
0.0221243
8.61738e-08
0.0221242
1.26535e-07
0.0221242
1.83399e-07
0.0221242
2.62416e-07
0.0221242
3.71673e-07
0.0221241
5.2154e-07
0.022124
7.2589e-07
0.0221239
1.00445e-06
0.0221238
1.38454e-06
0.0221236
1.90501e-06
0.0221233
2.62531e-06
0.0221229
3.63746e-06
0.0221224
5.08781e-06
0.0221217
7.21699e-06
0.0221206
1.0422e-05
0.0221191
1.53517e-05
0.022117
2.30802e-05
0.0221137
3.54979e-05
0.0221088
5.59156e-05
0.0221011
8.89453e-05
0.0220887
0.00013975
0.0220689
0.000221459
0.0220407
0.000368239
0.0219994
0.000590606
0.0219377
0.000901611
0.0220297
0.00179906
0.00122733
0.00432882
-0.0244198
0.00453583
-0.0231989
0.0050147
-0.0230558
0.00573282
-0.021877
0.00669414
-0.0196535
0.00775891
-0.0173687
0.00880722
-0.0151835
0.00977261
-0.0130428
0.0106239
-0.0110056
0.011348
-0.00914199
0.0119458
-0.00748488
0.0124277
-0.00604464
0.0128087
-0.00481795
0.0131046
-0.00379246
0.0133313
-0.00294925
0.0135026
-0.0022677
0.0136308
-0.00172511
0.0137256
-0.00129914
0.0137952
-0.00096917
0.0138458
-0.000716488
0.0138823
-0.000525098
0.0139084
-0.00038176
0.013927
-0.000275417
0.0139402
-0.000197242
0.0139494
-0.000140266
0.0139559
-9.90967e-05
0.0139604
-6.95714e-05
0.0139635
-4.8543e-05
0.0139656
-3.36765e-05
0.013967
-2.32331e-05
0.013968
-1.59432e-05
0.0139687
-1.08842e-05
0.0139691
-7.39307e-06
0.0139694
-4.99844e-06
0.0139696
-3.36382e-06
0.0139698
-2.25256e-06
0.0139699
-1.50093e-06
0.0139699
-9.95182e-07
0.01397
-6.56631e-07
0.01397
-4.30312e-07
0.01397
-2.79509e-07
0.01397
-1.80044e-07
0.01397
-1.14727e-07
0.01397
-7.16792e-08
0.01397
-4.31477e-08
0.01397
-2.40885e-08
0.01397
-1.18964e-08
0.01397
-3.19765e-09
0.01397
4.65672e-09
0.01397
1.50812e-08
0.01397
5.66566e-08
0.01397
2.06229e-09
0.01397
-5.18422e-08
0.01397
-1.0647e-08
0.01397
-3.365e-09
0.01397
-2.18554e-09
0.01397
-1.77443e-09
0.01397
-9.41519e-10
0.01397
-5.8596e-10
0.01397
-3.49392e-11
0.01397
6.0868e-10
0.01397
-1.52479e-09
0.01397
-3.48538e-09
0.01397
-2.58172e-09
0.01397
-1.7901e-09
0.01397
-6.95065e-10
0.01397
6.46622e-10
0.01397
3.25933e-09
0.01397
7.74553e-09
0.01397
1.45024e-08
0.01397
2.44242e-08
0.01397
3.90885e-08
0.01397
6.057e-08
0.01397
9.11213e-08
0.01397
1.34473e-07
0.01397
1.95534e-07
0.01397
2.80509e-07
0.01397
3.9807e-07
0.0139699
5.59504e-07
0.0139699
7.79901e-07
0.0139698
1.08043e-06
0.0139697
1.49047e-06
0.0139696
2.05184e-06
0.0139694
2.82781e-06
0.0139691
3.91599e-06
0.0139687
5.4712e-06
0.0139682
7.74704e-06
0.0139674
1.11611e-05
0.0139664
1.63964e-05
0.0139649
2.45859e-05
0.0139627
3.77142e-05
0.0139593
5.92379e-05
0.0139542
9.40747e-05
0.0139458
0.000148146
0.0139322
0.00023503
0.0139139
0.000386583
0.01389
0.000614462
0.0138611
0.000930532
0.0140027
0.0016575
0.00106581
0.00344587
-0.0228657
0.00263738
-0.0223904
0.00215264
-0.022571
0.00200994
-0.0217343
0.0022217
-0.0198653
0.00264809
-0.0177951
0.00316089
-0.0156963
0.00368477
-0.0135667
0.00417719
-0.011498
0.00461145
-0.00957625
0.00497701
-0.00785044
0.00527445
-0.00634208
0.00551038
-0.00505388
0.00569336
-0.00397545
0.0058329
-0.00308879
0.00593777
-0.00237257
0.00601562
-0.00180295
0.00607277
-0.0013563
0.00611433
-0.00101073
0.00614431
-0.000746459
0.00616575
-0.000546539
0.00618097
-0.000396982
0.00619171
-0.000286156
0.00619924
-0.000204776
0.0062045
-0.000145519
0.00620814
-0.000102738
0.00621065
-7.20818e-05
0.00621237
-5.02654e-05
0.00621355
-3.48518e-05
0.00621435
-2.40324e-05
0.00621489
-1.6484e-05
0.00621525
-1.12485e-05
0.0062155
-7.63742e-06
0.00621566
-5.1614e-06
0.00621577
-3.47188e-06
0.00621584
-2.32393e-06
0.00621589
-1.5478e-06
0.00621592
-1.02572e-06
0.00621594
-6.76277e-07
0.00621595
-4.42853e-07
0.00621596
-2.87431e-07
0.00621597
-1.84848e-07
0.00621597
-1.17413e-07
0.00621597
-7.30113e-08
0.00621597
-4.36617e-08
0.00621597
-2.40756e-08
0.00621597
-1.14041e-08
0.00621597
-2.26301e-09
0.00621597
6.24762e-09
0.00621597
1.80006e-08
0.00621597
5.71991e-08
0.00621597
2.80328e-09
0.00621597
-5.14729e-08
0.00621597
-1.3189e-08
0.00621597
-4.5746e-09
0.00621597
-2.52446e-09
0.00621597
-1.76778e-09
0.00621597
-1.05863e-09
0.00621597
-8.37545e-10
0.00621597
-4.62385e-10
0.00621597
-8.40833e-11
0.00621598
-1.91034e-09
0.00621598
-3.61919e-09
0.00621598
-3.02682e-09
0.00621598
-2.40621e-09
0.00621598
-1.41765e-09
0.00621598
-9.52876e-11
0.00621598
2.49202e-09
0.00621598
7.04313e-09
0.00621598
1.39554e-08
0.00621598
2.41623e-08
0.00621598
3.92936e-08
0.00621598
6.14778e-08
0.00621598
9.31838e-08
0.00621598
1.38241e-07
0.00621597
2.01718e-07
0.00621596
2.90174e-07
0.00621595
4.12621e-07
0.00621593
5.80906e-07
0.0062159
8.1089e-07
0.00621585
1.12458e-06
0.00621579
1.55255e-06
0.00621571
2.13833e-06
0.00621559
2.9472e-06
0.00621542
4.07948e-06
0.0062152
5.69398e-06
0.0062149
8.04989e-06
0.00621449
1.15733e-05
0.00621392
1.69618e-05
0.00621313
2.53752e-05
0.00621201
3.88399e-05
0.00621038
6.08603e-05
0.00620795
9.65045e-05
0.00620382
0.000152279
0.00619681
0.000242041
0.00618851
0.000394882
0.00618021
0.000622767
0.00617434
0.000936402
0.00630703
0.0015248
0.000926852
0.00286028
-0.020726
0.00129261
-0.0208227
3.01231e-05
-0.0213085
-0.00085773
-0.0208464
-0.0013346
-0.0193884
-0.00152387
-0.0176059
-0.00154364
-0.0156765
-0.00146799
-0.0136423
-0.00134862
-0.0116174
-0.00121976
-0.00970512
-0.00110041
-0.00796979
-0.000999055
-0.00644344
-0.000917841
-0.00513509
-0.000855405
-0.00403788
-0.000808713
-0.00313548
-0.000774623
-0.00240666
-0.000750208
-0.00182737
-0.000732997
-0.00137351
-0.000721067
-0.00102266
-0.000712875
-0.000754651
-0.000707298
-0.000552116
-0.000703575
-0.000400704
-0.000701096
-0.000288635
-0.000699445
-0.000206426
-0.000698352
-0.000146612
-0.000697641
-0.00010345
-0.000697184
-7.2538e-05
-0.000696887
-5.05625e-05
-0.000696696
-3.50425e-05
-0.000696574
-2.41541e-05
-0.000696496
-1.65612e-05
-0.000696447
-1.12974e-05
-0.000696416
-7.6679e-06
-0.000696398
-5.17986e-06
-0.000696386
-3.48306e-06
-0.000696379
-2.33055e-06
-0.000696375
-1.5516e-06
-0.000696373
-1.02772e-06
-0.000696371
-6.77078e-07
-0.000696371
-4.42996e-07
-0.000696371
-2.87247e-07
-0.000696371
-1.84384e-07
-0.000696371
-1.16711e-07
-0.000696372
-7.21764e-08
-0.000696372
-4.27951e-08
-0.000696373
-2.32292e-08
-0.000696373
-1.04201e-08
-0.000696374
-1.12065e-09
-0.000696375
7.52908e-09
-0.000696376
1.92785e-08
-0.00069637
5.12671e-08
-0.00069637
3.50382e-09
-0.000696377
-4.45834e-08
-0.000696376
-1.39287e-08
-0.000696375
-5.27001e-09
-0.000696374
-2.74324e-09
-0.000696374
-1.76226e-09
-0.000696373
-1.15499e-09
-0.000696373
-1.05472e-09
-0.000696372
-8.8144e-10
-0.000696371
-7.54817e-10
-0.00069637
-2.30513e-09
-0.00069637
-3.78257e-09
-0.000696369
-3.48302e-09
-0.000696368
-3.05813e-09
-0.000696367
-2.23426e-09
-0.000696366
-9.77963e-10
-0.000696364
1.50925e-09
-0.000696363
5.94897e-09
-0.000696361
1.2784e-08
-0.00069636
2.29644e-08
-0.000696358
3.81097e-08
-0.000696357
6.03385e-08
-0.000696356
9.22432e-08
-0.000696355
1.37656e-07
-0.000696354
2.01671e-07
-0.000696355
2.90988e-07
-0.000696357
4.14702e-07
-0.00069636
5.84851e-07
-0.000696367
8.17572e-07
-0.000696377
1.13508e-06
-0.000696392
1.56824e-06
-0.000696415
2.16095e-06
-0.000696446
2.97863e-06
-0.000696487
4.12143e-06
-0.000696541
5.74755e-06
-0.000696605
8.11442e-06
-0.000696676
1.16446e-05
-0.000696744
1.70304e-05
-0.000696796
2.54266e-05
-0.000696802
3.88467e-05
-0.000696693
6.0751e-05
-0.000696397
9.6209e-05
-0.000696217
0.000152099
-0.000696501
0.000242326
-0.000694744
0.000393125
-0.000688587
0.000616611
-0.000675682
0.000923496
-0.000564767
0.00141389
0.000820903
0.00253242
-0.0182584
0.000458033
-0.0187484
-0.0013766
-0.0194739
-0.00286103
-0.019362
-0.00393214
-0.0183173
-0.00467955
-0.0168584
-0.00519885
-0.0151572
-0.0055577
-0.0132835
-0.00580698
-0.0113681
-0.00598408
-0.00952802
-0.00611393
-0.00783994
-0.00621216
-0.00634522
-0.00628887
-0.00505838
-0.00634982
-0.00397694
-0.00639807
-0.00308723
-0.00643632
-0.00236841
-0.00646645
-0.00179723
-0.00648993
-0.00135003
-0.00650816
-0.00100443
-0.00652218
-0.000740631
-0.00653273
-0.000541566
-0.00654061
-0.000392819
-0.00654646
-0.000282785
-0.00655076
-0.000202125
-0.00655388
-0.000143497
-0.00655612
-0.000101206
-0.00655773
-7.09335e-05
-0.00655886
-4.94257e-05
-0.00655966
-3.42425e-05
-0.00656022
-2.35949e-05
-0.00656061
-1.61728e-05
-0.00656088
-1.10293e-05
-0.00656106
-7.4839e-06
-0.00656119
-5.05398e-06
-0.00656127
-3.39727e-06
-0.00656133
-2.27239e-06
-0.00656137
-1.51229e-06
-0.0065614
-1.00117e-06
-0.00656141
-6.59057e-07
-0.00656142
-4.30774e-07
-0.00656143
-2.7897e-07
-0.00656144
-1.78662e-07
-0.00656144
-1.1263e-07
-0.00656144
-6.91872e-08
-0.00656145
-4.0564e-08
-0.00656145
-2.15403e-08
-0.00656145
-8.96183e-09
-0.00656145
1.98119e-10
-0.00656145
8.60107e-09
-0.00656145
1.95794e-08
-0.00656144
4.38444e-08
-0.00656144
4.13193e-09
-0.00656145
-3.61733e-08
-0.00656145
-1.34983e-08
-0.00656145
-5.52586e-09
-0.00656145
-2.83849e-09
-0.00656145
-1.75097e-09
-0.00656145
-1.23888e-09
-0.00656145
-1.24945e-09
-0.00656145
-1.26944e-09
-0.00656145
-1.36299e-09
-0.00656145
-2.7017e-09
-0.00656145
-4.00103e-09
-0.00656145
-3.96108e-09
-0.00656145
-3.74266e-09
-0.00656144
-3.1217e-09
-0.00656144
-1.99738e-09
-0.00656144
3.01093e-10
-0.00656144
4.47452e-09
-0.00656144
1.10071e-08
-0.00656143
2.08407e-08
-0.00656143
3.5537e-08
-0.00656143
5.71473e-08
-0.00656142
8.82861e-08
-0.00656142
1.32689e-07
-0.00656141
1.95339e-07
-0.0065614
2.82856e-07
-0.00656139
4.04158e-07
-0.00656138
5.71104e-07
-0.00656136
7.996e-07
-0.00656134
1.11142e-06
-0.00656131
1.5368e-06
-0.00656126
2.1187e-06
-0.0065612
2.92078e-06
-0.00656112
4.04021e-06
-0.00656101
5.63013e-06
-0.00656083
7.93906e-06
-0.00656056
1.13744e-05
-0.00656013
1.66044e-05
-0.00655945
2.47467e-05
-0.00655836
3.77488e-05
-0.00655654
5.89395e-05
-0.00655358
9.32507e-05
-0.00654917
0.000147686
-0.00654275
0.000235905
-0.006531
0.00038137
-0.00651069
0.000596303
-0.00647917
0.00089198
-0.00637916
0.00131387
0.000737639
0.00240443
-0.0156628
4.00715e-05
-0.016384
-0.00217351
-0.0172603
-0.00410324
-0.0174323
-0.00565655
-0.016764
-0.00688305
-0.0156319
-0.00785168
-0.0141886
-0.00861379
-0.0125214
-0.00921274
-0.0107692
-0.00968451
-0.00905625
-0.010057
-0.00746749
-0.0103512
-0.00605096
-0.0105833
-0.00482631
-0.0107655
-0.00379474
-0.0109074
-0.00294527
-0.0110171
-0.00225874
-0.0111011
-0.00171324
-0.0111648
-0.0012863
-0.0112128
-0.000956478
-0.0112485
-0.000704875
-0.0112749
-0.00051517
-0.0112943
-0.000373496
-0.0113083
-0.000268749
-0.0113184
-0.000192007
-0.0113256
-0.000136262
-0.0113308
-9.60687e-05
-0.0113344
-6.73102e-05
-0.0113369
-4.68866e-05
-0.0113387
-3.24744e-05
-0.0113399
-2.23706e-05
-0.0113408
-1.53299e-05
-0.0113414
-1.0452e-05
-0.0113417
-7.09069e-06
-0.011342
-4.78724e-06
-0.0113422
-3.217e-06
-0.0113423
-2.15111e-06
-0.0113424
-1.43102e-06
-0.0113425
-9.46826e-07
-0.0113425
-6.22728e-07
-0.0113425
-4.06533e-07
-0.0113425
-2.62826e-07
-0.0113425
-1.67833e-07
-0.0113425
-1.05268e-07
-0.0113425
-6.41108e-08
-0.0113426
-3.70165e-08
-0.0113426
-1.90346e-08
-0.0113426
-7.05192e-09
-0.0113426
1.68546e-09
-0.0113426
9.5607e-09
-0.0113426
1.93575e-08
-0.0113426
3.69026e-08
-0.0113426
4.69671e-09
-0.0113426
-2.82225e-08
-0.0113426
-1.23702e-08
-0.0113426
-5.44495e-09
-0.0113426
-2.82256e-09
-0.0113426
-1.7281e-09
-0.0113426
-1.31195e-09
-0.0113426
-1.42454e-09
-0.0113426
-1.61604e-09
-0.0113426
-1.89571e-09
-0.0113426
-3.09273e-09
-0.0113426
-4.27552e-09
-0.0113426
-4.46333e-09
-0.0113426
-4.45637e-09
-0.0113426
-4.06602e-09
-0.0113426
-3.14253e-09
-0.0113425
-1.12477e-09
-0.0113425
2.64119e-09
-0.0113425
8.6572e-09
-0.0113425
1.78294e-08
-0.0113425
3.16209e-08
-0.0113425
5.19645e-08
-0.0113425
8.13952e-08
-0.0113425
1.23453e-07
-0.0113425
1.8287e-07
-0.0113425
2.65976e-07
-0.0113425
3.81254e-07
-0.0113424
5.40018e-07
-0.0113424
7.57449e-07
-0.0113423
1.05425e-06
-0.0113423
1.45911e-06
-0.0113421
2.01281e-06
-0.011342
2.77545e-06
-0.0113418
3.83848e-06
-0.0113415
5.34581e-06
-0.0113411
7.53041e-06
-0.0113405
1.07738e-05
-0.0113396
1.57022e-05
-0.0113382
2.33658e-05
-0.0113361
3.55951e-05
-0.0113326
5.55065e-05
-0.0113271
8.77628e-05
-0.0113187
0.000139231
-0.0113058
0.000222966
-0.0112842
0.000359788
-0.0112496
0.00056176
-0.0111978