/*--------------------------------*- C++ -*----------------------------------*\
| =========                 |                                                 |
| \\      /  F ield         | foam-extend: Open Source CFD                    |
|  \\    /   O peration     | Version:     5.0                                |
|   \\  /    A nd           | Web:         http://www.foam-extend.org         |
|    \\/     M anipulation  |                                                 |
\*---------------------------------------------------------------------------*/
FoamFile
{
    version     2.0;
    format      ascii;
    class       volVectorField;
    location    "0.025";
    object      U;
}
// * * * * * * * * * * * * * * * * * * * * * * * * * * * * * * * * * * * * * //

dimensions      [0 1 -1 0 0 0 0];

internalField   nonuniform List<vector> 
4000
(
(0.493472 0.0131196 0)
(1.00496 0.0110585 0)
(1.00083 -0.0186931 0)
(1.18729 -0.0247994 0)
(1.37605 -0.0160553 0)
(1.49855 -0.0115391 0)
(1.59479 -0.01079 0)
(1.68472 -0.00993548 0)
(1.76428 -0.00858003 0)
(1.83128 -0.00726714 0)
(1.88725 -0.00617715 0)
(1.93411 -0.00521676 0)
(1.97292 -0.00434211 0)
(2.00463 -0.00355401 0)
(2.03015 -0.00287839 0)
(2.05047 -0.0022958 0)
(2.06642 -0.00180936 0)
(2.07881 -0.00140641 0)
(2.08832 -0.0010818 0)
(2.09553 -0.000821906 0)
(2.10095 -0.000618632 0)
(2.10499 -0.000460418 0)
(2.10796 -0.000339974 0)
(2.11013 -0.000248461 0)
(2.11171 -0.000180342 0)
(2.11284 -0.000129655 0)
(2.11365 -9.26757e-05 0)
(2.11422 -6.56905e-05 0)
(2.11462 -4.63159e-05 0)
(2.11491 -3.23859e-05 0)
(2.1151 -2.2547e-05 0)
(2.11524 -1.55826e-05 0)
(2.11533 -1.07321e-05 0)
(2.1154 -7.33288e-06 0)
(2.11544 -4.98602e-06 0)
(2.11547 -3.37482e-06 0)
(2.11549 -2.27826e-06 0)
(2.1155 -1.52765e-06 0)
(2.11551 -1.01569e-06 0)
(2.11552 -6.73754e-07 0)
(2.11552 -4.49776e-07 0)
(2.11552 -2.9361e-07 0)
(2.11552 -1.87044e-07 0)
(2.11553 -1.18415e-07 0)
(2.11553 -7.6007e-08 0)
(2.11553 -4.79124e-08 0)
(2.11553 -2.29228e-08 0)
(2.11553 -1.06272e-08 0)
(2.11553 -1.01594e-08 0)
(2.11553 -3.80161e-08 0)
(2.11553 -1.61342e-07 0)
(2.11553 9.17175e-09 0)
(2.11553 1.67028e-07 0)
(2.11553 3.10965e-08 0)
(2.11553 -4.14498e-09 0)
(2.11553 3.18676e-09 0)
(2.11553 9.58821e-09 0)
(2.11553 2.75626e-09 0)
(2.11553 3.03027e-09 0)
(2.11553 7.8892e-10 0)
(2.11553 -1.13748e-08 0)
(2.11553 3.84322e-09 0)
(2.11553 1.78779e-08 0)
(2.11553 5.49124e-09 0)
(2.11553 4.31983e-09 0)
(2.11553 6.63052e-09 0)
(2.11553 1.20512e-08 0)
(2.11553 1.57645e-08 0)
(2.11553 2.26568e-08 0)
(2.11553 3.26156e-08 0)
(2.11553 4.5956e-08 0)
(2.11553 6.6542e-08 0)
(2.11553 9.24836e-08 0)
(2.11553 1.32085e-07 0)
(2.11552 1.8645e-07 0)
(2.11552 2.57861e-07 0)
(2.11552 3.57781e-07 0)
(2.11552 4.90716e-07 0)
(2.11551 6.69624e-07 0)
(2.11551 9.17097e-07 0)
(2.1155 1.24892e-06 0)
(2.11549 1.70609e-06 0)
(2.11547 2.34941e-06 0)
(2.11545 3.27282e-06 0)
(2.11542 4.62557e-06 0)
(2.11538 6.69002e-06 0)
(2.11532 9.90886e-06 0)
(2.11523 1.49925e-05 0)
(2.1151 2.29228e-05 0)
(2.1149 3.56815e-05 0)
(2.11458 5.84954e-05 0)
(2.11402 0.000100935 0)
(2.11309 0.000159607 0)
(2.11191 0.000205052 0)
(2.11036 0.000314618 0)
(2.10597 0.000817432 0)
(2.09676 0.0013483 0)
(2.09006 0.000156222 0)
(2.10845 -0.00514249 0)
(2.12374 -0.0048301 0)
(0.846892 -0.0562023 0)
(2.14929 -0.0190174 0)
(2.38107 -0.088559 0)
(2.8183 -0.100366 0)
(3.28553 -0.0726268 0)
(3.6348 -0.0561496 0)
(3.90893 -0.0498392 0)
(4.15053 -0.0439966 0)
(4.36045 -0.0374682 0)
(4.53715 -0.0314909 0)
(4.68387 -0.0263979 0)
(4.80523 -0.0219499 0)
(4.90454 -0.0180086 0)
(4.98497 -0.0145728 0)
(5.04914 -0.0116594 0)
(5.09979 -0.00920778 0)
(5.13927 -0.00718297 0)
(5.1697 -0.00553814 0)
(5.19289 -0.00422276 0)
(5.21039 -0.00318636 0)
(5.22345 -0.00237994 0)
(5.23312 -0.00176106 0)
(5.24021 -0.00129167 0)
(5.24537 -0.000939555 0)
(5.24909 -0.000677851 0)
(5.25175 -0.000485352 0)
(5.25365 -0.00034505 0)
(5.25499 -0.000243682 0)
(5.25592 -0.000170962 0)
(5.25658 -0.000119185 0)
(5.25703 -8.26011e-05 0)
(5.25735 -5.69247e-05 0)
(5.25756 -3.90353e-05 0)
(5.25771 -2.66077e-05 0)
(5.25781 -1.80239e-05 0)
(5.25787 -1.21737e-05 0)
(5.25792 -8.18921e-06 0)
(5.25795 -5.47674e-06 0)
(5.25797 -3.6311e-06 0)
(5.25798 -2.40099e-06 0)
(5.25799 -1.58849e-06 0)
(5.258 -1.0359e-06 0)
(5.258 -6.61948e-07 0)
(5.258 -4.17734e-07 0)
(5.258 -2.60557e-07 0)
(5.258 -1.61902e-07 0)
(5.25801 -8.16627e-08 0)
(5.25801 -3.28179e-08 0)
(5.25801 -2.65062e-08 0)
(5.25801 -1.07705e-07 0)
(5.25801 -5.34757e-07 0)
(5.25801 3.07046e-08 0)
(5.25801 5.60086e-07 0)
(5.25801 9.74036e-08 0)
(5.25801 -3.23437e-09 0)
(5.25801 8.98326e-09 0)
(5.25801 2.38439e-08 0)
(5.25801 1.06486e-08 0)
(5.25801 1.4554e-08 0)
(5.25801 8.46886e-09 0)
(5.25801 -2.99107e-08 0)
(5.25801 9.65089e-09 0)
(5.25801 5.0482e-08 0)
(5.25801 1.70846e-08 0)
(5.25801 1.33958e-08 0)
(5.25801 2.23453e-08 0)
(5.25801 4.16095e-08 0)
(5.25801 5.48746e-08 0)
(5.25801 7.69862e-08 0)
(5.25801 1.11649e-07 0)
(5.25801 1.63829e-07 0)
(5.25801 2.41134e-07 0)
(5.258 3.42063e-07 0)
(5.258 4.87933e-07 0)
(5.258 6.91463e-07 0)
(5.258 9.67297e-07 0)
(5.25799 1.35187e-06 0)
(5.25798 1.8687e-06 0)
(5.25797 2.56764e-06 0)
(5.25796 3.526e-06 0)
(5.25794 4.82022e-06 0)
(5.25791 6.58609e-06 0)
(5.25788 9.05483e-06 0)
(5.25783 1.25449e-05 0)
(5.25776 1.75908e-05 0)
(5.25766 2.5124e-05 0)
(5.25752 3.6704e-05 0)
(5.25731 5.48033e-05 0)
(5.25701 8.31618e-05 0)
(5.25655 0.000128417 0)
(5.25582 0.000206505 0)
(5.2546 0.00034701 0)
(5.25266 0.000554682 0)
(5.25005 0.000767361 0)
(5.24596 0.001189 0)
(5.23612 0.0027042 0)
(5.22007 0.00442888 0)
(5.20925 0.00202951 0)
(5.22572 -0.00804123 0)
(5.16832 -0.00831678 0)
(0.878253 -0.304755 0)
(2.71835 -0.164858 0)
(3.22813 -0.236188 0)
(3.82533 -0.246534 0)
(4.46141 -0.193328 0)
(4.97222 -0.154266 0)
(5.37909 -0.133119 0)
(5.72835 -0.115301 0)
(6.02605 -0.0976238 0)
(6.27472 -0.0816281 0)
(6.4794 -0.0678435 0)
(6.6468 -0.0558804 0)
(6.78207 -0.0454831 0)
(6.89058 -0.0365581 0)
(6.97625 -0.029041 0)
(7.04321 -0.0227882 0)
(7.09495 -0.0176733 0)
(7.13449 -0.0135529 0)
(7.16441 -0.0102829 0)
(7.18681 -0.00772298 0)
(7.20342 -0.00574401 0)
(7.21564 -0.00423335 0)
(7.22455 -0.00309366 0)
(7.231 -0.00224254 0)
(7.23562 -0.00161272 0)
(7.23892 -0.00115127 0)
(7.24125 -0.000816164 0)
(7.24289 -0.000574777 0)
(7.24404 -0.000402211 0)
(7.24483 -0.000279732 0)
(7.24538 -0.000193424 0)
(7.24576 -0.000133 0)
(7.24602 -9.1001e-05 0)
(7.2462 -6.19076e-05 0)
(7.24631 -4.18686e-05 0)
(7.24639 -2.82259e-05 0)
(7.24645 -1.89532e-05 0)
(7.24648 -1.26487e-05 0)
(7.24651 -8.37893e-06 0)
(7.24652 -5.52735e-06 0)
(7.24653 -3.63493e-06 0)
(7.24654 -2.37041e-06 0)
(7.24654 -1.52271e-06 0)
(7.24655 -9.58553e-07 0)
(7.24655 -5.888e-07 0)
(7.24655 -3.60827e-07 0)
(7.24655 -1.91577e-07 0)
(7.24655 -7.62526e-08 0)
(7.24655 -6.54551e-08 0)
(7.24655 -2.42115e-07 0)
(7.24655 -1.05372e-06 0)
(7.24655 5.6959e-08 0)
(7.24655 1.1103e-06 0)
(7.24655 2.37471e-07 0)
(7.24655 2.43126e-08 0)
(7.24655 1.30278e-08 0)
(7.24655 3.1119e-08 0)
(7.24655 2.08786e-08 0)
(7.24655 3.18006e-08 0)
(7.24655 2.10055e-08 0)
(7.24655 -4.27735e-08 0)
(7.24655 1.26332e-08 0)
(7.24655 7.6707e-08 0)
(7.24655 2.91315e-08 0)
(7.24655 2.25376e-08 0)
(7.24655 4.40851e-08 0)
(7.24655 8.68585e-08 0)
(7.24655 1.18179e-07 0)
(7.24655 1.64683e-07 0)
(7.24655 2.45089e-07 0)
(7.24655 3.72818e-07 0)
(7.24655 5.55245e-07 0)
(7.24655 8.00406e-07 0)
(7.24655 1.14495e-06 0)
(7.24654 1.62773e-06 0)
(7.24654 2.29767e-06 0)
(7.24653 3.22486e-06 0)
(7.24652 4.48466e-06 0)
(7.24651 6.18975e-06 0)
(7.24649 8.51622e-06 0)
(7.24647 1.1667e-05 0)
(7.24644 1.59588e-05 0)
(7.24639 2.19184e-05 0)
(7.24632 3.02982e-05 0)
(7.24624 4.23146e-05 0)
(7.24611 6.00601e-05 0)
(7.24594 8.70118e-05 0)
(7.24569 0.000128774 0)
(7.24531 0.000194285 0)
(7.24476 0.000299442 0)
(7.24389 0.000477281 0)
(7.24247 0.000782611 0)
(7.24026 0.00123906 0)
(7.23716 0.00181047 0)
(7.23204 0.00291139 0)
(7.22055 0.00583349 0)
(7.20407 0.00896539 0)
(7.19007 0.00655522 0)
(7.18345 0.00156267 0)
(7.00957 -0.00105329 0)
(0.753769 -0.58907 0)
(2.86372 -0.388462 0)
(3.53323 -0.429089 0)
(4.20366 -0.41961 0)
(4.92295 -0.342722 0)
(5.52111 -0.280576 0)
(6.00496 -0.239546 0)
(6.41659 -0.204862 0)
(6.7644 -0.172445 0)
(7.05323 -0.143547 0)
(7.28936 -0.118545 0)
(7.48091 -0.0969205 0)
(7.63417 -0.0783659 0)
(7.75634 -0.0626249 0)
(7.85194 -0.0494428 0)
(7.92607 -0.0385818 0)
(7.98291 -0.0297681 0)
(8.02605 -0.022719 0)
(8.05847 -0.0171608 0)
(8.0826 -0.0128355 0)
(8.1004 -0.00951014 0)
(8.11342 -0.0069841 0)
(8.12287 -0.00508664 0)
(8.12966 -0.0036755 0)
(8.13452 -0.00263546 0)
(8.13797 -0.00187625 0)
(8.1404 -0.00132668 0)
(8.1421 -0.000931953 0)
(8.14328 -0.000650618 0)
(8.1441 -0.000451515 0)
(8.14467 -0.000311556 0)
(8.14506 -0.000213801 0)
(8.14532 -0.000145993 0)
(8.1455 -9.91496e-05 0)
(8.14562 -6.69692e-05 0)
(8.1457 -4.50707e-05 0)
(8.14575 -3.02089e-05 0)
(8.14579 -2.01278e-05 0)
(8.14581 -1.3323e-05 0)
(8.14583 -8.77299e-06 0)
(8.14584 -5.74415e-06 0)
(8.14585 -3.74431e-06 0)
(8.14585 -2.41656e-06 0)
(8.14585 -1.52163e-06 0)
(8.14586 -9.28463e-07 0)
(8.14586 -5.63495e-07 0)
(8.14586 -3.09032e-07 0)
(8.14586 -1.2526e-07 0)
(8.14586 -9.32474e-08 0)
(8.14586 -3.34862e-07 0)
(8.14586 -1.5787e-06 0)
(8.14586 6.13872e-08 0)
(8.14586 1.64904e-06 0)
(8.14586 3.4412e-07 0)
(8.14586 5.18132e-08 0)
(8.14586 4.16965e-10 0)
(8.14586 7.02901e-09 0)
(8.14586 1.53184e-08 0)
(8.14586 3.68383e-08 0)
(8.14586 2.88011e-08 0)
(8.14586 -2.92664e-08 0)
(8.14586 1.52965e-09 0)
(8.14586 4.82831e-08 0)
(8.14586 1.62181e-08 0)
(8.14586 1.59478e-08 0)
(8.14586 4.86179e-08 0)
(8.14586 1.11782e-07 0)
(8.14586 1.64267e-07 0)
(8.14586 2.34544e-07 0)
(8.14586 3.63414e-07 0)
(8.14586 5.73068e-07 0)
(8.14586 8.67936e-07 0)
(8.14586 1.27189e-06 0)
(8.14586 1.83328e-06 0)
(8.14585 2.62247e-06 0)
(8.14585 3.73298e-06 0)
(8.14584 5.26685e-06 0)
(8.14583 7.36658e-06 0)
(8.14582 1.02158e-05 0)
(8.1458 1.40899e-05 0)
(8.14577 1.93494e-05 0)
(8.14574 2.65123e-05 0)
(8.14568 3.64014e-05 0)
(8.14562 5.02385e-05 0)
(8.14552 6.99496e-05 0)
(8.14539 9.87857e-05 0)
(8.1452 0.000142154 0)
(8.14494 0.000208897 0)
(8.14455 0.000313384 0)
(8.14397 0.000480457 0)
(8.14309 0.0007577 0)
(8.14167 0.00122401 0)
(8.13945 0.00194324 0)
(8.13634 0.00294184 0)
(8.13111 0.00473796 0)
(8.11958 0.00879809 0)
(8.10419 0.0136442 0)
(8.08912 0.0147449 0)
(8.06133 0.0271851 0)
(7.81895 0.0191088 0)
(0.55654 -0.854298 0)
(2.70969 -0.633014 0)
(3.3756 -0.640265 0)
(4.02616 -0.60441 0)
(4.75452 -0.504711 0)
(5.37089 -0.420351 0)
(5.87583 -0.35811 0)
(6.30762 -0.304417 0)
(6.67249 -0.2553 0)
(6.97504 -0.211821 0)
(7.22144 -0.174138 0)
(7.42046 -0.141641 0)
(7.57913 -0.113959 0)
(7.70454 -0.0906469 0)
(7.80219 -0.07123 0)
(7.87749 -0.0553404 0)
(7.93492 -0.0425243 0)
(7.97827 -0.0323313 0)
(8.01069 -0.0243356 0)
(8.03471 -0.0181423 0)
(8.05235 -0.0134014 0)
(8.06521 -0.00981424 0)
(8.0745 -0.00712874 0)
(8.08116 -0.00513798 0)
(8.0859 -0.00367558 0)
(8.08926 -0.00261112 0)
(8.09162 -0.00184257 0)
(8.09327 -0.00129184 0)
(8.09442 -0.000900235 0)
(8.09521 -0.000623689 0)
(8.09575 -0.000429673 0)
(8.09612 -0.000294406 0)
(8.09637 -0.000200718 0)
(8.09654 -0.000136145 0)
(8.09666 -9.18783e-05 0)
(8.09674 -6.17449e-05 0)
(8.09679 -4.13136e-05 0)
(8.09682 -2.74933e-05 0)
(8.09685 -1.81865e-05 0)
(8.09686 -1.19563e-05 0)
(8.09687 -7.80495e-06 0)
(8.09688 -5.07514e-06 0)
(8.09688 -3.27754e-06 0)
(8.09688 -2.06561e-06 0)
(8.09689 -1.25575e-06 0)
(8.09689 -7.49355e-07 0)
(8.09689 -4.09712e-07 0)
(8.09689 -1.65172e-07 0)
(8.09689 -9.31488e-08 0)
(8.09689 -3.54073e-07 0)
(8.09689 -2.06786e-06 0)
(8.09689 5.68716e-08 0)
(8.09689 2.16016e-06 0)
(8.09689 4.08501e-07 0)
(8.09689 7.91252e-08 0)
(8.09689 -1.39656e-08 0)
(8.09689 -2.97645e-08 0)
(8.09689 5.60293e-09 0)
(8.09689 3.83735e-08 0)
(8.09689 3.98306e-08 0)
(8.09689 1.98834e-08 0)
(8.09689 -7.3754e-09 0)
(8.09689 -1.64056e-08 0)
(8.09689 -7.64216e-09 0)
(8.09689 8.42166e-09 0)
(8.09689 4.72942e-08 0)
(8.09689 1.21974e-07 0)
(8.09689 2.01467e-07 0)
(8.09689 3.00535e-07 0)
(8.09689 4.77432e-07 0)
(8.09689 7.63484e-07 0)
(8.09689 1.16953e-06 0)
(8.09689 1.73459e-06 0)
(8.09688 2.51961e-06 0)
(8.09688 3.6261e-06 0)
(8.09688 5.19018e-06 0)
(8.09687 7.35254e-06 0)
(8.09686 1.03258e-05 0)
(8.09685 1.43727e-05 0)
(8.09683 1.98682e-05 0)
(8.0968 2.73423e-05 0)
(8.09677 3.75319e-05 0)
(8.09672 5.15378e-05 0)
(8.09665 7.10645e-05 0)
(8.09655 9.87693e-05 0)
(8.09642 0.000139023 0)
(8.09623 0.000199106 0)
(8.09597 0.000291011 0)
(8.09559 0.000434299 0)
(8.09503 0.000662073 0)
(8.09419 0.00103531 0)
(8.09283 0.00165761 0)
(8.09071 0.00263897 0)
(8.0878 0.00406496 0)
(8.08293 0.00650507 0)
(8.07175 0.0115831 0)
(8.05768 0.0183783 0)
(8.04567 0.0243835 0)
(8.00675 0.0578887 0)
(7.7862 0.0432376 0)
(0.333548 -1.06147 0)
(2.37271 -0.854058 0)
(2.90223 -0.836763 0)
(3.44529 -0.777628 0)
(4.11518 -0.660174 0)
(4.6901 -0.55775 0)
(5.16684 -0.47631 0)
(5.58003 -0.404159 0)
(5.9319 -0.338419 0)
(6.2244 -0.280245 0)
(6.46234 -0.229691 0)
(6.65426 -0.186172 0)
(6.80689 -0.149226 0)
(6.92693 -0.118252 0)
(7.02005 -0.0925878 0)
(7.09154 -0.071688 0)
(7.14584 -0.0549086 0)
(7.18665 -0.0416214 0)
(7.21706 -0.0312409 0)
(7.23951 -0.0232292 0)
(7.25593 -0.017117 0)
(7.26786 -0.0125072 0)
(7.27646 -0.00906558 0)
(7.2826 -0.00652081 0)
(7.28697 -0.00465619 0)
(7.29005 -0.00330205 0)
(7.29221 -0.00232638 0)
(7.29372 -0.00162858 0)
(7.29476 -0.00113329 0)
(7.29548 -0.000784104 0)
(7.29598 -0.000539505 0)
(7.29631 -0.000369222 0)
(7.29654 -0.000251415 0)
(7.2967 -0.000170367 0)
(7.2968 -0.000114896 0)
(7.29687 -7.71225e-05 0)
(7.29692 -5.15283e-05 0)
(7.29695 -3.42583e-05 0)
(7.29697 -2.2651e-05 0)
(7.29698 -1.48728e-05 0)
(7.29699 -9.69263e-06 0)
(7.297 -6.28421e-06 0)
(7.297 -4.05031e-06 0)
(7.297 -2.55589e-06 0)
(7.297 -1.55321e-06 0)
(7.297 -9.13678e-07 0)
(7.29701 -4.90777e-07 0)
(7.29701 -1.92275e-07 0)
(7.29701 -6.39966e-08 0)
(7.29701 -2.77731e-07 0)
(7.29701 -2.38645e-06 0)
(7.297 4.71371e-08 0)
(7.29701 2.50211e-06 0)
(7.29701 3.86793e-07 0)
(7.29701 7.97047e-08 0)
(7.29701 -3.33667e-08 0)
(7.29701 -6.78825e-08 0)
(7.29701 -9.30422e-09 0)
(7.29701 3.18814e-08 0)
(7.29701 4.44103e-08 0)
(7.29701 6.78969e-08 0)
(7.29701 -1.89735e-08 0)
(7.29701 -8.84312e-08 0)
(7.29701 -3.89058e-08 0)
(7.29701 -4.61588e-09 0)
(7.29701 3.62025e-08 0)
(7.29701 1.13852e-07 0)
(7.29701 2.21673e-07 0)
(7.29701 3.53832e-07 0)
(7.29701 5.77138e-07 0)
(7.29701 9.27477e-07 0)
(7.29701 1.43328e-06 0)
(7.29701 2.15054e-06 0)
(7.297 3.15063e-06 0)
(7.297 4.5631e-06 0)
(7.297 6.55849e-06 0)
(7.29699 9.32254e-06 0)
(7.29698 1.31331e-05 0)
(7.29697 1.8333e-05 0)
(7.29695 2.53988e-05 0)
(7.29693 3.50188e-05 0)
(7.29689 4.81434e-05 0)
(7.29685 6.61387e-05 0)
(7.29678 9.11542e-05 0)
(7.29669 0.000126538 0)
(7.29657 0.000177683 0)
(7.2964 0.000253569 0)
(7.29615 0.000369025 0)
(7.2958 0.00054827 0)
(7.29529 0.000831737 0)
(7.29452 0.00129227 0)
(7.29328 0.00205615 0)
(7.29136 0.0032777 0)
(7.28883 0.00509774 0)
(7.28462 0.00811271 0)
(7.27407 0.0140551 0)
(7.26178 0.0226474 0)
(7.25671 0.0332259 0)
(7.21399 0.0821945 0)
(7.08398 0.0615029 0)
(0.118465 -1.19559 0)
(1.95929 -1.02307 0)
(2.26952 -0.994899 0)
(2.64212 -0.922245 0)
(3.19942 -0.795368 0)
(3.68607 -0.680383 0)
(4.09514 -0.583584 0)
(4.45827 -0.495778 0)
(4.77194 -0.415432 0)
(5.03412 -0.343932 0)
(5.2479 -0.281495 0)
(5.42052 -0.227704 0)
(5.55767 -0.182058 0)
(5.66523 -0.143875 0)
(5.74843 -0.112353 0)
(5.81208 -0.0867618 0)
(5.86024 -0.0662825 0)
(5.89631 -0.0501211 0)
(5.92309 -0.0375362 0)
(5.94279 -0.0278509 0)
(5.95717 -0.020482 0)
(5.96758 -0.0149387 0)
(5.97505 -0.0108095 0)
(5.98039 -0.00776281 0)
(5.98417 -0.00553477 0)
(5.98683 -0.00391968 0)
(5.98869 -0.00275798 0)
(5.98999 -0.00192839 0)
(5.99088 -0.00134042 0)
(5.9915 -0.000926431 0)
(5.99192 -0.000636795 0)
(5.99221 -0.000435402 0)
(5.99241 -0.000296201 0)
(5.99254 -0.000200553 0)
(5.99263 -0.000135166 0)
(5.99269 -9.06473e-05 0)
(5.99273 -6.04985e-05 0)
(5.99275 -4.01871e-05 0)
(5.99277 -2.65577e-05 0)
(5.99278 -1.74242e-05 0)
(5.99279 -1.13425e-05 0)
(5.99279 -7.33636e-06 0)
(5.9928 -4.71327e-06 0)
(5.9928 -2.97147e-06 0)
(5.9928 -1.80503e-06 0)
(5.9928 -1.0484e-06 0)
(5.9928 -5.50534e-07 0)
(5.9928 -2.02027e-07 0)
(5.9928 -7.87446e-10 0)
(5.9928 -7.00715e-08 0)
(5.9928 -1.83873e-06 0)
(5.99279 4.44317e-08 0)
(5.9928 1.98288e-06 0)
(5.9928 2.28821e-07 0)
(5.9928 3.70627e-08 0)
(5.9928 -5.46735e-08 0)
(5.9928 -8.95986e-08 0)
(5.9928 -2.36943e-08 0)
(5.9928 1.86978e-08 0)
(5.9928 4.03086e-08 0)
(5.9928 8.57659e-08 0)
(5.9928 -3.28972e-08 0)
(5.9928 -1.36057e-07 0)
(5.9928 -6.89109e-08 0)
(5.9928 -2.3479e-08 0)
(5.9928 2.04551e-08 0)
(5.9928 9.71598e-08 0)
(5.9928 2.24023e-07 0)
(5.9928 3.89605e-07 0)
(5.9928 6.57283e-07 0)
(5.9928 1.06197e-06 0)
(5.9928 1.65307e-06 0)
(5.9928 2.50649e-06 0)
(5.9928 3.70243e-06 0)
(5.9928 5.39374e-06 0)
(5.99279 7.77953e-06 0)
(5.99279 1.1089e-05 0)
(5.99278 1.56589e-05 0)
(5.99277 2.19101e-05 0)
(5.99276 3.04157e-05 0)
(5.99273 4.20033e-05 0)
(5.9927 5.78148e-05 0)
(5.99266 7.94748e-05 0)
(5.99261 0.000109519 0)
(5.99253 0.000151892 0)
(5.99242 0.000212897 0)
(5.99227 0.000302973 0)
(5.99205 0.000439379 0)
(5.99175 0.000650297 0)
(5.99131 0.000982483 0)
(5.99066 0.00151907 0)
(5.98959 0.00240563 0)
(5.98794 0.00383401 0)
(5.98593 0.00599584 0)
(5.98259 0.0095108 0)
(5.97287 0.0161566 0)
(5.9628 0.0261444 0)
(5.96677 0.0398716 0)
(5.92286 0.0937955 0)
(5.90324 0.0686643 0)
(-0.067693 -1.25513 0)
(1.55168 -1.12738 0)
(1.6102 -1.10128 0)
(1.779 -1.02645 0)
(2.19025 -0.89937 0)
(2.55751 -0.779355 0)
(2.87074 -0.673023 0)
(3.15952 -0.57362 0)
(3.41549 -0.48147 0)
(3.63162 -0.398787 0)
(3.80878 -0.32618 0)
(3.95228 -0.2635 0)
(4.06638 -0.210284 0)
(4.15572 -0.165827 0)
(4.22467 -0.129221 0)
(4.27726 -0.0995761 0)
(4.31693 -0.0759199 0)
(4.34654 -0.0572987 0)
(4.36844 -0.0428343 0)
(4.38449 -0.0317283 0)
(4.39617 -0.0232961 0)
(4.4046 -0.0169661 0)
(4.41064 -0.0122597 0)
(4.41493 -0.00879285 0)
(4.41797 -0.00626161 0)
(4.4201 -0.00442945 0)
(4.42159 -0.00311344 0)
(4.42262 -0.00217481 0)
(4.42334 -0.00151034 0)
(4.42383 -0.00104298 0)
(4.42416 -0.000716343 0)
(4.42439 -0.000489439 0)
(4.42454 -0.000332719 0)
(4.42465 -0.000225127 0)
(4.42472 -0.000151631 0)
(4.42476 -0.000101619 0)
(4.42479 -6.77676e-05 0)
(4.42482 -4.49776e-05 0)
(4.42483 -2.97067e-05 0)
(4.42484 -1.94825e-05 0)
(4.42484 -1.26695e-05 0)
(4.42485 -8.17996e-06 0)
(4.42485 -5.23766e-06 0)
(4.42485 -3.29242e-06 0)
(4.42485 -1.99561e-06 0)
(4.42485 -1.14016e-06 0)
(4.42485 -5.8657e-07 0)
(4.42485 -1.98257e-07 0)
(4.42485 8.85351e-08 0)
(4.42485 2.86165e-07 0)
(4.42485 2.84815e-07 0)
(4.42482 5.48928e-08 0)
(4.42485 -1.06508e-07 0)
(4.42485 -9.1134e-08 0)
(4.42485 -4.04081e-08 0)
(4.42485 -7.67596e-08 0)
(4.42485 -9.30536e-08 0)
(4.42485 -3.50262e-08 0)
(4.42485 -1.30643e-09 0)
(4.42485 2.74088e-08 0)
(4.42485 7.47786e-08 0)
(4.42485 -4.89777e-08 0)
(4.42485 -1.59727e-07 0)
(4.42485 -9.49501e-08 0)
(4.42485 -4.7353e-08 0)
(4.42485 3.4507e-09 0)
(4.42485 7.56646e-08 0)
(4.42485 2.07678e-07 0)
(4.42485 4.04246e-07 0)
(4.42485 7.087e-07 0)
(4.42485 1.1583e-06 0)
(4.42485 1.81922e-06 0)
(4.42485 2.78343e-06 0)
(4.42485 4.14261e-06 0)
(4.42485 6.06718e-06 0)
(4.42485 8.77955e-06 0)
(4.42484 1.2546e-05 0)
(4.42484 1.77523e-05 0)
(4.42483 2.48885e-05 0)
(4.42482 3.4612e-05 0)
(4.4248 4.78645e-05 0)
(4.42478 6.59472e-05 0)
(4.42474 9.07109e-05 0)
(4.42469 0.000125004 0)
(4.42463 0.000173247 0)
(4.42454 0.000242473 0)
(4.42442 0.000344278 0)
(4.42425 0.000497808 0)
(4.424 0.000734342 0)
(4.42366 0.00110566 0)
(4.42315 0.00170311 0)
(4.4223 0.00268697 0)
(4.42098 0.00427755 0)
(4.41958 0.00671229 0)
(4.41725 0.0106346 0)
(4.40854 0.0177947 0)
(4.40097 0.0286704 0)
(4.414 0.0439675 0)
(4.36777 0.0934416 0)
(4.43101 0.0656081 0)
(-0.214781 -1.24861 0)
(1.20201 -1.16677 0)
(1.01662 -1.15179 0)
(0.976889 -1.08537 0)
(1.22814 -0.966656 0)
(1.46039 -0.848518 0)
(1.6614 -0.738451 0)
(1.86043 -0.632485 0)
(2.04518 -0.532656 0)
(2.20406 -0.441966 0)
(2.33562 -0.361687 0)
(2.44273 -0.292087 0)
(2.52819 -0.232878 0)
(2.59509 -0.1834 0)
(2.6466 -0.142707 0)
(2.68576 -0.109797 0)
(2.71516 -0.0835778 0)
(2.73702 -0.0629795 0)
(2.75312 -0.0470113 0)
(2.76486 -0.0347741 0)
(2.77337 -0.0254989 0)
(2.77949 -0.0185478 0)
(2.78385 -0.0133874 0)
(2.78694 -0.00959162 0)
(2.78912 -0.0068237 0)
(2.79064 -0.00482269 0)
(2.7917 -0.00338699 0)
(2.79243 -0.00236401 0)
(2.79294 -0.00164052 0)
(2.79329 -0.0011321 0)
(2.79352 -0.000777071 0)
(2.79368 -0.000530624 0)
(2.79379 -0.000360508 0)
(2.79386 -0.000243795 0)
(2.79391 -0.000164109 0)
(2.79395 -0.00010992 0)
(2.79397 -7.326e-05 0)
(2.79398 -4.85882e-05 0)
(2.79399 -3.20707e-05 0)
(2.794 -2.10241e-05 0)
(2.794 -1.36609e-05 0)
(2.794 -8.80646e-06 0)
(2.794 -5.62076e-06 0)
(2.79401 -3.51971e-06 0)
(2.79401 -2.12475e-06 0)
(2.79401 -1.19435e-06 0)
(2.79401 -5.99973e-07 0)
(2.79401 -1.79104e-07 0)
(2.79401 1.85935e-07 0)
(2.79401 6.39902e-07 0)
(2.79401 2.42197e-06 0)
(2.79399 8.44272e-08 0)
(2.79401 -2.20415e-06 0)
(2.79401 -4.26587e-07 0)
(2.79401 -1.28761e-07 0)
(2.79401 -9.92028e-08 0)
(2.79401 -8.99287e-08 0)
(2.79401 -4.39843e-08 0)
(2.79401 -2.1829e-08 0)
(2.79401 8.53436e-09 0)
(2.79401 4.70435e-08 0)
(2.79401 -6.71597e-08 0)
(2.79401 -1.71228e-07 0)
(2.79401 -1.18603e-07 0)
(2.79401 -7.50757e-08 0)
(2.79401 -1.94991e-08 0)
(2.79401 4.84654e-08 0)
(2.79401 1.79639e-07 0)
(2.79401 3.98759e-07 0)
(2.79401 7.29236e-07 0)
(2.79401 1.21392e-06 0)
(2.79401 1.92922e-06 0)
(2.79401 2.97645e-06 0)
(2.79401 4.46173e-06 0)
(2.79401 6.56774e-06 0)
(2.794 9.53429e-06 0)
(2.794 1.36596e-05 0)
(2.794 1.93653e-05 0)
(2.79399 2.71965e-05 0)
(2.79398 3.78816e-05 0)
(2.79397 5.24495e-05 0)
(2.79395 7.23258e-05 0)
(2.79393 9.954e-05 0)
(2.79389 0.000137178 0)
(2.79385 0.000190009 0)
(2.79378 0.000265608 0)
(2.79369 0.000376403 0)
(2.79357 0.000542883 0)
(2.7934 0.000798542 0)
(2.79316 0.00119888 0)
(2.79281 0.00184129 0)
(2.7922 0.00289593 0)
(2.79126 0.00460277 0)
(2.79054 0.00724092 0)
(2.78926 0.011479 0)
(2.78176 0.0189743 0)
(2.77683 0.0303143 0)
(2.79751 0.046153 0)
(2.74717 0.0868853 0)
(2.83788 0.057589 0)
(-0.321073 -1.19006 0)
(0.934768 -1.14926 0)
(0.539418 -1.15014 0)
(0.308777 -1.09898 0)
(0.402656 -0.995726 0)
(0.497782 -0.885886 0)
(0.580741 -0.777737 0)
(0.682239 -0.670002 0)
(0.787963 -0.566492 0)
(0.882592 -0.471111 0)
(0.962518 -0.385907 0)
(1.02834 -0.311667 0)
(1.08127 -0.248363 0)
(1.1227 -0.195415 0)
(1.1545 -0.151886 0)
(1.17853 -0.116718 0)
(1.19646 -0.0887388 0)
(1.20968 -0.0667878 0)
(1.21934 -0.0497956 0)
(1.22632 -0.0367929 0)
(1.23134 -0.0269505 0)
(1.23491 -0.0195839 0)
(1.23744 -0.0141222 0)
(1.23922 -0.0101095 0)
(1.24046 -0.0071864 0)
(1.24132 -0.00507524 0)
(1.24192 -0.00356185 0)
(1.24233 -0.00248446 0)
(1.24261 -0.00172305 0)
(1.2428 -0.0011884 0)
(1.24293 -0.000815304 0)
(1.24302 -0.000556464 0)
(1.24308 -0.000377891 0)
(1.24312 -0.000255431 0)
(1.24314 -0.000171855 0)
(1.24316 -0.000115055 0)
(1.24317 -7.66457e-05 0)
(1.24318 -5.08054e-05 0)
(1.24319 -3.35097e-05 0)
(1.24319 -2.19526e-05 0)
(1.24319 -1.42542e-05 0)
(1.24319 -9.17483e-06 0)
(1.24319 -5.83753e-06 0)
(1.24319 -3.63936e-06 0)
(1.24319 -2.18455e-06 0)
(1.24319 -1.21259e-06 0)
(1.24319 -5.88188e-07 0)
(1.24319 -1.40165e-07 0)
(1.24319 2.74678e-07 0)
(1.24319 8.517e-07 0)
(1.24319 3.01111e-06 0)
(1.24319 1.21322e-07 0)
(1.24319 -2.74957e-06 0)
(1.24319 -6.23359e-07 0)
(1.24319 -2.03632e-07 0)
(1.24319 -1.191e-07 0)
(1.24319 -8.88717e-08 0)
(1.24319 -5.09683e-08 0)
(1.24319 -3.68851e-08 0)
(1.24319 -1.28902e-08 0)
(1.24319 1.26092e-08 0)
(1.2432 -8.64087e-08 0)
(1.2432 -1.78269e-07 0)
(1.2432 -1.41049e-07 0)
(1.2432 -1.05231e-07 0)
(1.2432 -5.21864e-08 0)
(1.2432 1.44763e-08 0)
(1.2432 1.44913e-07 0)
(1.2432 3.72968e-07 0)
(1.2432 7.17034e-07 0)
(1.2432 1.22328e-06 0)
(1.2432 1.97258e-06 0)
(1.2432 3.07076e-06 0)
(1.2432 4.63667e-06 0)
(1.2432 6.86026e-06 0)
(1.2432 9.99235e-06 0)
(1.24319 1.43541e-05 0)
(1.24319 2.03902e-05 0)
(1.24319 2.86828e-05 0)
(1.24318 4.00102e-05 0)
(1.24318 5.54585e-05 0)
(1.24317 7.6535e-05 0)
(1.24315 0.000105386 0)
(1.24313 0.000145244 0)
(1.2431 0.000201084 0)
(1.24307 0.000280793 0)
(1.24301 0.000397258 0)
(1.24294 0.000571691 0)
(1.24285 0.000838799 0)
(1.24273 0.00125621 0)
(1.24255 0.00192472 0)
(1.24221 0.00301923 0)
(1.24167 0.00479105 0)
(1.24164 0.00755306 0)
(1.24145 0.0119924 0)
(1.2353 0.0196371 0)
(1.23304 0.0310978 0)
(1.25996 0.0469094 0)
(1.20439 0.0795074 0)
(1.29986 0.0496116 0)
(-0.390446 -1.09491 0)
(0.753546 -1.08714 0)
(0.194916 -1.10443 0)
(-0.19587 -1.07187 0)
(-0.243574 -0.988326 0)
(-0.277836 -0.891404 0)
(-0.311504 -0.789927 0)
(-0.307633 -0.685011 0)
(-0.283522 -0.581899 0)
(-0.256264 -0.485333 0)
(-0.231096 -0.398175 0)
(-0.209018 -0.321767 0)
(-0.190775 -0.256401 0)
(-0.176535 -0.201638 0)
(-0.165765 -0.15661 0)
(-0.157833 -0.120244 0)
(-0.152115 -0.0913325 0)
(-0.148057 -0.0686734 0)
(-0.14521 -0.0511514 0)
(-0.143272 -0.0377598 0)
(-0.141925 -0.0276351 0)
(-0.141027 -0.0200638 0)
(-0.140429 -0.014457 0)
(-0.140029 -0.0103421 0)
(-0.139764 -0.0073471 0)
(-0.139587 -0.00518546 0)
(-0.139477 -0.00363697 0)
(-0.139403 -0.00253559 0)
(-0.139356 -0.00175764 0)
(-0.139325 -0.00121172 0)
(-0.139306 -0.000830948 0)
(-0.139294 -0.000566923 0)
(-0.139286 -0.000384848 0)
(-0.139281 -0.000260023 0)
(-0.139278 -0.000174873 0)
(-0.139276 -0.000117029 0)
(-0.139275 -7.79286e-05 0)
(-0.139275 -5.16298e-05 0)
(-0.139274 -3.40276e-05 0)
(-0.139274 -2.22736e-05 0)
(-0.139274 -1.44505e-05 0)
(-0.139274 -9.28516e-06 0)
(-0.139274 -5.88824e-06 0)
(-0.139274 -3.65238e-06 0)
(-0.139274 -2.17604e-06 0)
(-0.139275 -1.19177e-06 0)
(-0.139275 -5.51325e-07 0)
(-0.139275 -8.74975e-08 0)
(-0.139275 3.46588e-07 0)
(-0.139275 9.49398e-07 0)
(-0.139274 2.7655e-06 0)
(-0.139275 1.58029e-07 0)
(-0.139274 -2.45683e-06 0)
(-0.139275 -6.98895e-07 0)
(-0.139275 -2.51935e-07 0)
(-0.139275 -1.33376e-07 0)
(-0.139275 -8.88301e-08 0)
(-0.139275 -5.62179e-08 0)
(-0.139275 -4.83124e-08 0)
(-0.139275 -3.44008e-08 0)
(-0.139274 -2.20834e-08 0)
(-0.139274 -1.06035e-07 0)
(-0.139274 -1.8533e-07 0)
(-0.139274 -1.63386e-07 0)
(-0.139274 -1.37019e-07 0)
(-0.139274 -9.11559e-08 0)
(-0.139273 -2.61801e-08 0)
(-0.139273 1.01479e-07 0)
(-0.139273 3.2797e-07 0)
(-0.139272 6.73985e-07 0)
(-0.139272 1.1869e-06 0)
(-0.139272 1.94849e-06 0)
(-0.139272 3.0656e-06 0)
(-0.139271 4.66575e-06 0)
(-0.139271 6.94148e-06 0)
(-0.139271 1.01483e-05 0)
(-0.139271 1.462e-05 0)
(-0.139271 2.08118e-05 0)
(-0.139272 2.93247e-05 0)
(-0.139273 4.09639e-05 0)
(-0.139274 5.68416e-05 0)
(-0.139277 7.85026e-05 0)
(-0.13928 0.000108146 0)
(-0.139286 0.000149059 0)
(-0.139293 0.00020628 0)
(-0.139302 0.000287779 0)
(-0.139314 0.000406541 0)
(-0.13933 0.000583897 0)
(-0.139344 0.00085479 0)
(-0.139346 0.0012774 0)
(-0.139341 0.00195323 0)
(-0.13942 0.00305727 0)
(-0.139538 0.00484462 0)
(-0.13887 0.00765233 0)
(-0.137977 0.0121763 0)
(-0.14271 0.0198032 0)
(-0.142272 0.031147 0)
(-0.109992 0.0466962 0)
(-0.17072 0.0733331 0)
(-0.0760079 0.0434321 0)
(-0.429674 -0.977347 0)
(0.648816 -0.993559 0)
(-0.024473 -1.02487 0)
(-0.539032 -1.01099 0)
(-0.704909 -0.948551 0)
(-0.855028 -0.867292 0)
(-0.995819 -0.77604 0)
(-1.08566 -0.677708 0)
(-1.14163 -0.57854 0)
(-1.18154 -0.484085 0)
(-1.21155 -0.397903 0)
(-1.23398 -0.321851 0)
(-1.25106 -0.256524 0)
(-1.26466 -0.201685 0)
(-1.2754 -0.156579 0)
(-1.28393 -0.120146 0)
(-1.29068 -0.0911942 0)
(-1.29597 -0.0685201 0)
(-1.30005 -0.050996 0)
(-1.30325 -0.0376154 0)
(-1.30565 -0.0275115 0)
(-1.30746 -0.0199602 0)
(-1.3088 -0.0143729 0)
(-1.3098 -0.0102759 0)
(-1.31052 -0.00729655 0)
(-1.31104 -0.00514714 0)
(-1.31141 -0.00360823 0)
(-1.31168 -0.00251457 0)
(-1.31187 -0.00174237 0)
(-1.312 -0.00120076 0)
(-1.31209 -0.000823147 0)
(-1.31215 -0.000561426 0)
(-1.3122 -0.000380999 0)
(-1.31223 -0.000257329 0)
(-1.31225 -0.000173002 0)
(-1.31226 -0.000115736 0)
(-1.31227 -7.70377e-05 0)
(-1.31228 -5.10137e-05 0)
(-1.31228 -3.35954e-05 0)
(-1.31228 -2.19705e-05 0)
(-1.31229 -1.42381e-05 0)
(-1.31229 -9.13003e-06 0)
(-1.31229 -5.76834e-06 0)
(-1.31229 -3.55652e-06 0)
(-1.31229 -2.09839e-06 0)
(-1.31229 -1.12842e-06 0)
(-1.31229 -4.90096e-07 0)
(-1.31229 -2.56375e-08 0)
(-1.31229 4.0476e-07 0)
(-1.31229 9.81195e-07 0)
(-1.31229 2.38705e-06 0)
(-1.31229 1.91161e-07 0)
(-1.31229 -2.02964e-06 0)
(-1.31229 -6.98944e-07 0)
(-1.31229 -2.75298e-07 0)
(-1.31229 -1.41414e-07 0)
(-1.31229 -8.85817e-08 0)
(-1.31229 -6.0671e-08 0)
(-1.31229 -5.85507e-08 0)
(-1.31229 -5.48635e-08 0)
(-1.31229 -5.43642e-08 0)
(-1.31229 -1.25951e-07 0)
(-1.31229 -1.94814e-07 0)
(-1.31229 -1.86663e-07 0)
(-1.31229 -1.70516e-07 0)
(-1.31229 -1.34031e-07 0)
(-1.31229 -7.38662e-08 0)
(-1.31229 4.66952e-08 0)
(-1.31229 2.63532e-07 0)
(-1.31229 5.99962e-07 0)
(-1.31229 1.10357e-06 0)
(-1.31229 1.85431e-06 0)
(-1.31229 2.95705e-06 0)
(-1.31229 4.54296e-06 0)
(-1.31228 6.80227e-06 0)
(-1.31228 9.98845e-06 0)
(-1.31228 1.44366e-05 0)
(-1.31228 2.05999e-05 0)
(-1.31228 2.90795e-05 0)
(-1.31227 4.06816e-05 0)
(-1.31227 5.65128e-05 0)
(-1.31226 7.81092e-05 0)
(-1.31226 0.000107656 0)
(-1.31225 0.000148399 0)
(-1.31223 0.000205297 0)
(-1.31221 0.000286176 0)
(-1.31219 0.000403751 0)
(-1.31215 0.000578881 0)
(-1.31208 0.000845765 0)
(-1.31196 0.00126151 0)
(-1.31178 0.00192564 0)
(-1.3116 0.00300871 0)
(-1.31131 0.00476239 0)
(-1.30996 0.00753629 0)
(-1.30801 0.0120217 0)
(-1.31128 0.0194642 0)
(-1.30816 0.0304821 0)
(-1.27094 0.0455822 0)
(-1.33588 0.0681244 0)
(-1.23867 0.0387677 0)
(-0.446404 -0.848963 0)
(0.604535 -0.880522 0)
(-0.139802 -0.92174 0)
(-0.742122 -0.92407 0)
(-1.0013 -0.88175 0)
(-1.24808 -0.817092 0)
(-1.48352 -0.738254 0)
(-1.65933 -0.649302 0)
(-1.79065 -0.557084 0)
(-1.89489 -0.467699 0)
(-1.97839 -0.385238 0)
(-2.04437 -0.311967 0)
(-2.0963 -0.248753 0)
(-2.13717 -0.195569 0)
(-2.16913 -0.151797 0)
(-2.19392 -0.116428 0)
(-2.21299 -0.0883255 0)
(-2.22751 -0.0663282 0)
(-2.23846 -0.0493324 0)
(-2.24668 -0.0363642 0)
(-2.25276 -0.0265828 0)
(-2.25723 -0.0192762 0)