/*--------------------------------*- C++ -*----------------------------------*\
| =========                 |                                                 |
| \\      /  F ield         | foam-extend: Open Source CFD                    |
|  \\    /   O peration     | Version:     5.0                                |
|   \\  /    A nd           | Web:         http://www.foam-extend.org         |
|    \\/     M anipulation  |                                                 |
\*---------------------------------------------------------------------------*/
FoamFile
{
    version     2.0;
    format      ascii;
    class       volVectorField;
    location    "0.035";
    object      bodyForce;
}
// * * * * * * * * * * * * * * * * * * * * * * * * * * * * * * * * * * * * * //

dimensions      [0 1 -2 0 0 0 0];

internalField   nonuniform List<vector> 
4000
(
(-72.1812 0 0)
(16.8813 -0 0)
(108.516 -0 0)
(207.76 -0 0)
(312.355 -0 0)
(395.929 -0 0)
(468.638 -0 0)
(536.605 -0 0)
(600.068 -0 0)
(654.957 -0 0)
(703.137 -0 0)
(743.866 -0 0)
(779.161 -0 0)
(810.962 -0 0)
(838.941 -0 0)
(862.826 -0 0)
(883.026 -0 0)
(899.922 -0 0)
(913.737 -0 0)
(924.934 -0 0)
(933.764 -0 0)
(940.813 -0 0)
(946.476 -0 0)
(950.983 -0 0)
(954.352 -0 0)
(956.878 -0 0)
(958.888 -0 0)
(960.414 -0 0)
(961.568 -0 0)
(962.43 -0 0)
(963.059 -0 0)
(963.479 -0 0)
(963.844 -0 0)
(964.082 -0 0)
(964.255 -0 0)
(964.379 -0 0)
(964.469 -0 0)
(964.532 -0 0)
(964.578 -0 0)
(964.61 -0 0)
(964.632 -0 0)
(964.647 -0 0)
(964.658 -0 0)
(964.666 -0 0)
(964.671 -0 0)
(964.674 -0 0)
(964.677 -0 0)
(964.678 -0 0)
(964.679 -0 0)
(964.68 -0 0)
(964.681 -0 0)
(964.682 -0 0)
(964.682 -0 0)
(964.682 -0 0)
(964.682 -0 0)
(964.682 -0 0)
(964.682 -0 0)
(964.682 -0 0)
(964.682 -0 0)
(964.681 -0 0)
(964.681 -0 0)
(964.681 -0 0)
(964.682 -0 0)
(964.682 -0 0)
(964.682 -0 0)
(964.682 -0 0)
(964.681 -0 0)
(964.681 -0 0)
(964.68 -0 0)
(964.679 -0 0)
(964.678 -0 0)
(964.676 -0 0)
(964.672 -0 0)
(964.668 -0 0)
(964.662 -0 0)
(964.653 -0 0)
(964.64 -0 0)
(964.619 -0 0)
(964.589 -0 0)
(964.543 -0 0)
(964.473 -0 0)
(964.368 -0 0)
(964.206 -0 0)
(963.957 -0 0)
(963.575 -0 0)
(962.995 -0 0)
(962.101 -0 0)
(960.736 -0 0)
(958.665 -0 0)
(955.534 -0 0)
(950.798 -0 0)
(943.697 -0 0)
(933.156 -0 0)
(917.916 -0 0)
(896.284 -0 0)
(865.021 -0 0)
(814.644 -0 0)
(748.622 -0 0)
(746.268 -0 0)
(777.788 -0 0)
(-91.9932 0 0)
(248.579 -0 0)
(527.292 -0 0)
(786.6 -0 0)
(1061.03 -0 0)
(1297.69 -0 0)
(1502.06 -0 0)
(1685 -0 0)
(1858.92 -0 0)
(2007.82 -0 0)
(2135.86 -0 0)
(2246.38 -0 0)
(2342.99 -0 0)
(2426.85 -0 0)
(2498.38 -0 0)
(2559.39 -0 0)
(2611.16 -0 0)
(2653.54 -0 0)
(2687.38 -0 0)
(2715.36 -0 0)
(2737.16 -0 0)
(2754.32 -0 0)
(2768.06 -0 0)
(2778.83 -0 0)
(2786.97 -0 0)
(2793.08 -0 0)
(2797.89 -0 0)
(2801.48 -0 0)
(2804.18 -0 0)
(2806.18 -0 0)
(2807.64 -0 0)
(2808.69 -0 0)
(2809.47 -0 0)
(2810.02 -0 0)
(2810.42 -0 0)
(2810.7 -0 0)
(2810.91 -0 0)
(2811.05 -0 0)
(2811.16 -0 0)
(2811.23 -0 0)
(2811.28 -0 0)
(2811.31 -0 0)
(2811.34 -0 0)
(2811.35 -0 0)
(2811.37 -0 0)
(2811.37 -0 0)
(2811.38 -0 0)
(2811.38 -0 0)
(2811.39 -0 0)
(2811.39 -0 0)
(2811.39 -0 0)
(2811.39 -0 0)
(2811.39 -0 0)
(2811.39 -0 0)
(2811.39 -0 0)
(2811.39 -0 0)
(2811.39 -0 0)
(2811.39 -0 0)
(2811.39 -0 0)
(2811.39 -0 0)
(2811.39 -0 0)
(2811.39 -0 0)
(2811.39 -0 0)
(2811.39 -0 0)
(2811.39 -0 0)
(2811.39 -0 0)
(2811.39 -0 0)
(2811.39 -0 0)
(2811.39 -0 0)
(2811.39 -0 0)
(2811.38 -0 0)
(2811.38 -0 0)
(2811.37 -0 0)
(2811.36 -0 0)
(2811.35 -0 0)
(2811.33 -0 0)
(2811.3 -0 0)
(2811.26 -0 0)
(2811.19 -0 0)
(2811.1 -0 0)
(2810.95 -0 0)
(2810.73 -0 0)
(2810.39 -0 0)
(2809.88 -0 0)
(2809.08 -0 0)
(2807.87 -0 0)
(2805.99 -0 0)
(2803.12 -0 0)
(2798.76 -0 0)
(2792.13 -0 0)
(2782.07 -0 0)
(2766.95 -0 0)
(2744.39 -0 0)
(2711.54 -0 0)
(2664.18 -0 0)
(2595.31 -0 0)
(2491.36 -0 0)
(2371.59 -0 0)
(2360.02 -0 0)
(2336.71 -0 0)
(-104.518 0 0)
(457.601 -0 0)
(895.893 -0 0)
(1270.96 -0 0)
(1666.36 -0 0)
(2019.61 -0 0)
(2327.64 -0 0)
(2602.52 -0 0)
(2850.46 -0 0)
(3066.99 -0 0)
(3248.8 -0 0)
(3409.38 -0 0)
(3551.97 -0 0)
(3671.12 -0 0)
(3771.65 -0 0)
(3855.53 -0 0)
(3924.25 -0 0)
(3981.14 -0 0)
(4024.79 -0 0)
(4062.53 -0 0)
(4091.05 -0 0)
(4113.84 -0 0)
(4131.42 -0 0)
(4144.97 -0 0)
(4155.29 -0 0)
(4162.98 -0 0)
(4168.92 -0 0)
(4173.37 -0 0)
(4176.68 -0 0)
(4179.13 -0 0)
(4180.91 -0 0)
(4182.19 -0 0)
(4183.12 -0 0)
(4183.78 -0 0)
(4184.26 -0 0)
(4184.6 -0 0)
(4184.85 -0 0)
(4185.02 -0 0)
(4185.14 -0 0)
(4185.23 -0 0)
(4185.29 -0 0)
(4185.33 -0 0)
(4185.36 -0 0)
(4185.38 -0 0)
(4185.39 -0 0)
(4185.4 -0 0)
(4185.41 -0 0)
(4185.41 -0 0)
(4185.41 -0 0)
(4185.42 -0 0)
(4185.42 -0 0)
(4185.42 -0 0)
(4185.42 -0 0)
(4185.42 -0 0)
(4185.42 -0 0)
(4185.42 -0 0)
(4185.42 -0 0)
(4185.42 -0 0)
(4185.42 -0 0)
(4185.42 -0 0)
(4185.42 -0 0)
(4185.42 -0 0)
(4185.42 -0 0)
(4185.42 -0 0)
(4185.42 -0 0)
(4185.42 -0 0)
(4185.42 -0 0)
(4185.42 -0 0)
(4185.42 -0 0)
(4185.41 -0 0)
(4185.41 -0 0)
(4185.41 -0 0)
(4185.4 -0 0)
(4185.39 -0 0)
(4185.37 -0 0)
(4185.35 -0 0)
(4185.32 -0 0)
(4185.27 -0 0)
(4185.2 -0 0)
(4185.09 -0 0)
(4184.93 -0 0)
(4184.68 -0 0)
(4184.3 -0 0)
(4183.73 -0 0)
(4182.85 -0 0)
(4181.5 -0 0)
(4179.4 -0 0)
(4176.2 -0 0)
(4171.33 -0 0)
(4163.93 -0 0)
(4152.65 -0 0)
(4135.82 -0 0)
(4110.51 -0 0)
(4073.41 -0 0)
(4019.39 -0 0)
(3940.39 -0 0)
(3822.39 -0 0)
(3684.22 -0 0)
(3621.72 -0 0)
(3461.54 -0 0)
(-135.909 0 0)
(570.401 -0 0)
(1100.14 -0 0)
(1542.81 -0 0)
(2013.31 -0 0)
(2439.36 -0 0)
(2814.53 -0 0)
(3147.86 -0 0)
(3444.96 -0 0)
(3705.36 -0 0)
(3914.38 -0 0)
(4110.08 -0 0)
(4290.87 -0 0)
(4432.99 -0 0)
(4551.26 -0 0)
(4648.55 -0 0)
(4727.62 -0 0)
(4792.05 -0 0)
(4838.83 -0 0)
(4883.79 -0 0)
(4916.08 -0 0)
(4941.19 -0 0)
(4960.53 -0 0)
(4975.1 -0 0)
(4986.5 -0 0)
(4994.89 -0 0)
(5001.29 -0 0)
(5006.05 -0 0)
(5009.58 -0 0)
(5012.16 -0 0)
(5014.04 -0 0)
(5015.39 -0 0)
(5016.37 -0 0)
(5017.04 -0 0)
(5017.55 -0 0)
(5017.89 -0 0)
(5018.17 -0 0)
(5018.34 -0 0)
(5018.47 -0 0)
(5018.56 -0 0)
(5018.62 -0 0)
(5018.66 -0 0)
(5018.69 -0 0)
(5018.71 -0 0)
(5018.72 -0 0)
(5018.73 -0 0)
(5018.74 -0 0)
(5018.74 -0 0)
(5018.75 -0 0)
(5018.75 -0 0)
(5018.75 -0 0)
(5018.75 -0 0)
(5018.75 -0 0)
(5018.75 -0 0)
(5018.75 -0 0)
(5018.75 -0 0)
(5018.75 -0 0)
(5018.75 -0 0)
(5018.75 -0 0)
(5018.75 -0 0)
(5018.75 -0 0)
(5018.75 -0 0)
(5018.75 -0 0)
(5018.75 -0 0)
(5018.75 -0 0)
(5018.75 -0 0)
(5018.75 -0 0)
(5018.75 -0 0)
(5018.75 -0 0)
(5018.75 -0 0)
(5018.74 -0 0)
(5018.74 -0 0)
(5018.73 -0 0)
(5018.72 -0 0)
(5018.7 -0 0)
(5018.68 -0 0)
(5018.65 -0 0)
(5018.6 -0 0)
(5018.53 -0 0)
(5018.43 -0 0)
(5018.27 -0 0)
(5018.03 -0 0)
(5017.65 -0 0)
(5017.09 -0 0)
(5016.24 -0 0)
(5014.93 -0 0)
(5012.84 -0 0)
(5009.79 -0 0)
(5005.04 -0 0)
(4997.64 -0 0)
(4986.53 -0 0)
(4970.32 -0 0)
(4945.48 -0 0)
(4908.86 -0 0)
(4855.08 -0 0)
(4775.71 -0 0)
(4655.34 -0 0)
(4504.62 -0 0)
(4387.71 -0 0)
(4115.83 -0 0)
(-193.675 0 0)
(569.962 -0 0)
(1113.53 -0 0)
(1568.35 -0 0)
(2067.07 -0 0)
(2520.71 -0 0)
(2923.95 -0 0)
(3280.87 -0 0)
(3600.58 -0 0)
(3882.1 -0 0)
(4123.83 -0 0)
(4342.12 -0 0)
(4527.37 -0 0)
(4679.91 -0 0)
(4806.49 -0 0)
(4910.03 -0 0)
(4993.8 -0 0)
(5061.52 -0 0)
(5113.76 -0 0)
(5157.65 -0 0)
(5190.88 -0 0)
(5216.73 -0 0)
(5236.58 -0 0)
(5250.81 -0 0)
(5262.98 -0 0)
(5271.59 -0 0)
(5278.09 -0 0)
(5282.89 -0 0)
(5286.42 -0 0)
(5288.99 -0 0)
(5290.86 -0 0)
(5292.2 -0 0)
(5293.17 -0 0)
(5293.81 -0 0)
(5294.35 -0 0)
(5294.71 -0 0)
(5294.96 -0 0)
(5295.14 -0 0)
(5295.26 -0 0)
(5295.35 -0 0)
(5295.4 -0 0)
(5295.44 -0 0)
(5295.47 -0 0)
(5295.49 -0 0)
(5295.5 -0 0)
(5295.51 -0 0)
(5295.52 -0 0)
(5295.52 -0 0)
(5295.53 -0 0)
(5295.53 -0 0)
(5295.53 -0 0)
(5295.53 -0 0)
(5295.53 -0 0)
(5295.53 -0 0)
(5295.53 -0 0)
(5295.53 -0 0)
(5295.53 -0 0)
(5295.53 -0 0)
(5295.53 -0 0)
(5295.53 -0 0)
(5295.53 -0 0)
(5295.53 -0 0)
(5295.53 -0 0)
(5295.53 -0 0)
(5295.53 -0 0)
(5295.53 -0 0)
(5295.53 -0 0)
(5295.53 -0 0)
(5295.53 -0 0)
(5295.53 -0 0)
(5295.53 -0 0)
(5295.52 -0 0)
(5295.51 -0 0)
(5295.5 -0 0)
(5295.49 -0 0)
(5295.47 -0 0)
(5295.44 -0 0)
(5295.39 -0 0)
(5295.33 -0 0)
(5295.23 -0 0)
(5295.07 -0 0)
(5294.85 -0 0)
(5294.48 -0 0)
(5293.97 -0 0)
(5293.17 -0 0)
(5291.94 -0 0)
(5290.03 -0 0)
(5287.13 -0 0)
(5282.62 -0 0)
(5275.91 -0 0)
(5265.58 -0 0)
(5250.09 -0 0)
(5226.59 -0 0)
(5191.8 -0 0)
(5140.33 -0 0)
(5063.35 -0 0)
(4944.04 -0 0)
(4782.91 -0 0)
(4627.04 -0 0)
(4299.59 -0 0)
(-276.501 0 0)
(468.197 -0 0)
(958.738 -0 0)
(1370.41 -0 0)
(1851.6 -0 0)
(2290.49 -0 0)
(2683.84 -0 0)
(3025.64 -0 0)
(3339.53 -0 0)
(3623 -0 0)
(3867.44 -0 0)
(4101.79 -0 0)
(4284.78 -0 0)
(4436.72 -0 0)
(4562.58 -0 0)
(4665.29 -0 0)
(4748.16 -0 0)
(4814.83 -0 0)
(4867.12 -0 0)
(4909.09 -0 0)
(4940.92 -0 0)
(4966.13 -0 0)
(4985.3 -0 0)
(4997.22 -0 0)
(5010.58 -0 0)
(5018.95 -0 0)
(5025.17 -0 0)
(5029.73 -0 0)
(5033.06 -0 0)
(5035.44 -0 0)
(5037.2 -0 0)
(5038.48 -0 0)
(5039.4 -0 0)
(5040.06 -0 0)
(5040.54 -0 0)
(5040.87 -0 0)
(5041.11 -0 0)
(5041.27 -0 0)
(5041.38 -0 0)
(5041.46 -0 0)
(5041.51 -0 0)
(5041.55 -0 0)
(5041.58 -0 0)
(5041.6 -0 0)
(5041.61 -0 0)
(5041.62 -0 0)
(5041.62 -0 0)
(5041.63 -0 0)
(5041.63 -0 0)
(5041.63 -0 0)
(5041.63 -0 0)
(5041.63 -0 0)
(5041.63 -0 0)
(5041.63 -0 0)
(5041.63 -0 0)
(5041.63 -0 0)
(5041.63 -0 0)
(5041.63 -0 0)
(5041.63 -0 0)
(5041.63 -0 0)
(5041.63 -0 0)
(5041.63 -0 0)
(5041.63 -0 0)
(5041.63 -0 0)
(5041.63 -0 0)
(5041.63 -0 0)
(5041.63 -0 0)
(5041.63 -0 0)
(5041.63 -0 0)
(5041.63 -0 0)
(5041.63 -0 0)
(5041.62 -0 0)
(5041.62 -0 0)
(5041.61 -0 0)
(5041.59 -0 0)
(5041.58 -0 0)
(5041.55 -0 0)
(5041.51 -0 0)
(5041.44 -0 0)
(5041.35 -0 0)
(5041.22 -0 0)
(5041.01 -0 0)
(5040.69 -0 0)
(5040.22 -0 0)
(5039.5 -0 0)
(5038.39 -0 0)
(5036.68 -0 0)
(5034.1 -0 0)
(5029.81 -0 0)
(5024.03 -0 0)
(5014.78 -0 0)
(5000.69 -0 0)
(4979.31 -0 0)
(4947.54 -0 0)
(4900.16 -0 0)
(4828.1 -0 0)
(4714.39 -0 0)
(4551.26 -0 0)
(4371.59 -0 0)
(4027.31 -0 0)
(-373.068 0 0)
(293.748 -0 0)
(683.495 -0 0)
(1006.13 -0 0)
(1430.91 -0 0)
(1819.27 -0 0)
(2169.94 -0 0)
(2488.71 -0 0)
(2783.02 -0 0)
(3042.53 -0 0)
(3274.54 -0 0)
(3479.7 -0 0)
(3647.92 -0 0)
(3788.71 -0 0)
(3905.33 -0 0)
(4000.38 -0 0)
(4076.91 -0 0)
(4138.24 -0 0)
(4186.5 -0 0)
(4224.54 -0 0)
(4252.45 -0 0)
(4276.1 -0 0)
(4293.53 -0 0)
(4305.8 -0 0)
(4316.44 -0 0)
(4323.82 -0 0)
(4329.37 -0 0)
(4333.39 -0 0)
(4336.33 -0 0)
(4338.31 -0 0)
(4339.9 -0 0)
(4341.06 -0 0)
(4341.9 -0 0)
(4342.54 -0 0)
(4342.96 -0 0)
(4343.25 -0 0)
(4343.45 -0 0)
(4343.6 -0 0)
(4343.69 -0 0)
(4343.75 -0 0)
(4343.81 -0 0)
(4343.84 -0 0)
(4343.86 -0 0)
(4343.88 -0 0)
(4343.89 -0 0)
(4343.9 -0 0)
(4343.9 -0 0)
(4343.9 -0 0)
(4343.91 -0 0)
(4343.91 -0 0)
(4343.91 -0 0)
(4343.91 -0 0)
(4343.91 -0 0)
(4343.91 -0 0)
(4343.91 -0 0)
(4343.91 -0 0)
(4343.91 -0 0)
(4343.91 -0 0)
(4343.91 -0 0)
(4343.91 -0 0)
(4343.91 -0 0)
(4343.91 -0 0)
(4343.91 -0 0)
(4343.91 -0 0)
(4343.91 -0 0)
(4343.91 -0 0)
(4343.91 -0 0)
(4343.91 -0 0)
(4343.91 -0 0)
(4343.91 -0 0)
(4343.91 -0 0)
(4343.9 -0 0)
(4343.9 -0 0)
(4343.89 -0 0)
(4343.88 -0 0)
(4343.86 -0 0)
(4343.84 -0 0)
(4343.8 -0 0)
(4343.75 -0 0)
(4343.67 -0 0)
(4343.56 -0 0)
(4343.38 -0 0)
(4343.11 -0 0)
(4342.71 -0 0)
(4342.08 -0 0)
(4341.12 -0 0)
(4339.67 -0 0)
(4337.5 -0 0)
(4334.02 -0 0)
(4328.96 -0 0)
(4321.06 -0 0)
(4308.94 -0 0)
(4290.47 -0 0)
(4262.93 -0 0)
(4221.41 -0 0)
(4156.92 -0 0)
(4053.76 -0 0)
(3898.78 -0 0)
(3701.98 -0 0)
(3361.25 -0 0)
(-472.23 0 0)
(80.0431 -0 0)
(341.356 -0 0)
(543.571 -0 0)
(883.389 -0 0)
(1194.17 -0 0)
(1475.97 -0 0)
(1740.48 -0 0)
(1993.19 -0 0)
(2207.5 -0 0)
(2413.94 -0 0)
(2585.84 -0 0)
(2729.42 -0 0)
(2850.15 -0 0)
(2950.17 -0 0)
(3031.62 -0 0)
(3097.04 -0 0)
(3149.27 -0 0)
(3190.3 -0 0)
(3222.36 -0 0)
(3243.22 -0 0)
(3265.5 -0 0)
(3280.19 -0 0)
(3290.97 -0 0)
(3299.38 -0 0)
(3305.39 -0 0)
(3309.98 -0 0)
(3313.24 -0 0)
(3315.57 -0 0)
(3317.36 -0 0)
(3318.63 -0 0)
(3319.56 -0 0)
(3320.23 -0 0)
(3320.71 -0 0)
(3321.05 -0 0)
(3321.28 -0 0)
(3321.45 -0 0)
(3321.56 -0 0)
(3321.63 -0 0)
(3321.69 -0 0)
(3321.73 -0 0)
(3321.76 -0 0)
(3321.77 -0 0)
(3321.79 -0 0)
(3321.8 -0 0)
(3321.8 -0 0)
(3321.8 -0 0)
(3321.81 -0 0)
(3321.81 -0 0)
(3321.81 -0 0)
(3321.81 -0 0)
(3321.81 -0 0)
(3321.81 -0 0)
(3321.81 -0 0)
(3321.81 -0 0)
(3321.81 -0 0)
(3321.81 -0 0)
(3321.81 -0 0)
(3321.81 -0 0)
(3321.81 -0 0)
(3321.81 -0 0)
(3321.81 -0 0)
(3321.81 -0 0)
(3321.81 -0 0)
(3321.81 -0 0)
(3321.81 -0 0)
(3321.81 -0 0)
(3321.81 -0 0)
(3321.81 -0 0)
(3321.81 -0 0)
(3321.81 -0 0)
(3321.81 -0 0)
(3321.8 -0 0)
(3321.8 -0 0)
(3321.79 -0 0)
(3321.78 -0 0)
(3321.76 -0 0)
(3321.73 -0 0)
(3321.68 -0 0)
(3321.62 -0 0)
(3321.53 -0 0)
(3321.39 -0 0)
(3321.18 -0 0)
(3320.86 -0 0)
(3320.36 -0 0)
(3319.55 -0 0)
(3318.38 -0 0)
(3316.75 -0 0)
(3314.07 -0 0)
(3310.03 -0 0)
(3303.76 -0 0)
(3294.06 -0 0)
(3279.19 -0 0)
(3256.92 -0 0)
(3222.81 -0 0)
(3168.24 -0 0)
(3079.83 -0 0)
(2939.97 -0 0)
(2722.1 -0 0)
(2387.05 -0 0)
(-566.299 0 0)
(-142.077 0 0)
(-20.2788 0 0)
(46.4704 -0 0)
(284.442 -0 0)
(500.463 -0 0)
(695.609 -0 0)
(883.659 -0 0)
(1081.31 -0 0)
(1250.51 -0 0)
(1405.58 -0 0)
(1536.67 -0 0)
(1647.65 -0 0)
(1741.36 -0 0)
(1818.92 -0 0)
(1881.99 -0 0)
(1932.47 -0 0)
(1972.61 -0 0)
(2004.02 -0 0)
(2028.44 -0 0)
(2045.61 -0 0)
(2061.03 -0 0)
(2071.92 -0 0)
(2080.15 -0 0)
(2086.27 -0 0)
(2090.65 -0 0)
(2094.09 -0 0)
(2096.39 -0 0)
(2098.15 -0 0)
(2099.43 -0 0)
(2100.35 -0 0)
(2101.01 -0 0)
(2101.48 -0 0)
(2101.82 -0 0)
(2102.06 -0 0)
(2102.22 -0 0)
(2102.34 -0 0)
(2102.42 -0 0)
(2102.48 -0 0)
(2102.51 -0 0)
(2102.54 -0 0)
(2102.56 -0 0)
(2102.58 -0 0)
(2102.58 -0 0)
(2102.59 -0 0)
(2102.59 -0 0)
(2102.6 -0 0)
(2102.6 -0 0)
(2102.6 -0 0)
(2102.6 -0 0)
(2102.6 -0 0)
(2102.6 -0 0)
(2102.6 -0 0)
(2102.6 -0 0)
(2102.6 -0 0)
(2102.6 -0 0)
(2102.6 -0 0)
(2102.6 -0 0)
(2102.6 -0 0)
(2102.6 -0 0)
(2102.61 -0 0)
(2102.6 -0 0)
(2102.61 -0 0)
(2102.6 -0 0)
(2102.6 -0 0)
(2102.6 -0 0)
(2102.6 -0 0)
(2102.61 -0 0)
(2102.6 -0 0)
(2102.6 -0 0)
(2102.6 -0 0)
(2102.6 -0 0)
(2102.6 -0 0)
(2102.6 -0 0)
(2102.59 -0 0)
(2102.58 -0 0)
(2102.56 -0 0)
(2102.54 -0 0)
(2102.51 -0 0)
(2102.47 -0 0)
(2102.4 -0 0)
(2102.31 -0 0)
(2102.16 -0 0)
(2101.93 -0 0)
(2101.59 -0 0)
(2101.05 -0 0)
(2100.25 -0 0)
(2099.08 -0 0)
(2097.22 -0 0)
(2094.39 -0 0)
(2089.98 -0 0)
(2083.06 -0 0)
(2072.33 -0 0)
(2056.18 -0 0)
(2030.76 -0 0)
(1988.11 -0 0)
(1917.71 -0 0)
(1796.95 -0 0)
(1546.27 -0 0)
(1206.89 -0 0)
(-650.093 0 0)
(-349.573 0 0)
(-364.751 0 0)
(-433.459 0 0)
(-303.795 0 0)
(-190.784 0 0)
(-91.4635 0 0)
(20.5935 -0 0)
(142.847 -0 0)
(252.127 -0 0)
(351.682 -0 0)
(435.566 -0 0)
(508.559 -0 0)
(570.563 -0 0)
(621.578 -0 0)
(662.957 -0 0)
(695.833 -0 0)
(721.825 -0 0)
(741.995 -0 0)
(757.551 -0 0)
(768.727 -0 0)
(777.954 -0 0)
(784.549 -0 0)
(789.703 -0 0)
(793.344 -0 0)
(795.936 -0 0)
(798.114 -0 0)
(799.341 -0 0)
(800.384 -0 0)
(801.138 -0 0)
(801.664 -0 0)
(802.039 -0 0)
(802.306 -0 0)
(802.493 -0 0)
(802.637 -0 0)
(802.716 -0 0)
(802.782 -0 0)
(802.826 -0 0)
(802.857 -0 0)
(802.879 -0 0)
(802.895 -0 0)
(802.905 -0 0)
(802.912 -0 0)
(802.917 -0 0)
(802.92 -0 0)
(802.923 -0 0)
(802.924 -0 0)
(802.926 -0 0)
(802.926 -0 0)
(802.926 -0 0)
(802.927 -0 0)
(802.926 -0 0)
(802.928 -0 0)
(802.927 -0 0)
(802.927 -0 0)
(802.928 -0 0)
(802.928 -0 0)
(802.93 -0 0)
(802.93 -0 0)
(802.929 -0 0)
(802.941 -0 0)
(802.929 -0 0)
(802.93 -0 0)
(802.929 -0 0)
(802.929 -0 0)
(802.93 -0 0)
(802.93 -0 0)
(802.934 -0 0)
(802.93 -0 0)
(802.93 -0 0)
(802.929 -0 0)
(802.929 -0 0)
(802.927 -0 0)
(802.937 -0 0)
(802.921 -0 0)
(802.917 -0 0)
(802.909 -0 0)
(802.897 -0 0)
(802.88 -0 0)
(802.857 -0 0)
(802.819 -0 0)
(802.766 -0 0)
(802.686 -0 0)
(802.562 -0 0)
(802.386 -0 0)
(802.108 -0 0)
(801.687 -0 0)
(801.066 -0 0)
(800.085 -0 0)
(798.569 -0 0)
(796.167 -0 0)
(792.283 -0 0)
(786.102 -0 0)
(776.689 -0 0)
(760.959 -0 0)
(731.951 -0 0)
(682.196 -0 0)
(584.111 -0 0)
(290.679 -0 0)
(-57.6143 0 0)
(-720.685 0 0)
(-529.809 0 0)
(-668.383 0 0)
(-859.493 0 0)
(-836.164 0 0)
(-826.736 0 0)
(-824.999 0 0)
(-796.844 0 0)
(-752.815 0 0)
(-710.187 0 0)
(-669.968 0 0)
(-635.028 0 0)
(-605.111 0 0)
(-578.873 0 0)
(-557.16 0 0)
(-539.647 0 0)
(-526.138 0 0)
(-515.625 0 0)
(-507.718 0 0)
(-501.792 0 0)
(-497.735 0 0)
(-494.604 0 0)
(-492.461 0 0)
(-490.738 0 0)
(-489.651 0 0)
(-488.979 0 0)
(-488.285 0 0)
(-488.009 0 0)
(-487.75 0 0)
(-487.561 0 0)
(-487.443 0 0)
(-487.362 0 0)
(-487.307 0 0)
(-487.272 0 0)
(-487.211 0 0)
(-487.232 0 0)
(-487.219 0 0)
(-487.213 0 0)
(-487.207 0 0)
(-487.203 0 0)
(-487.2 0 0)
(-487.199 0 0)
(-487.197 0 0)
(-487.196 0 0)
(-487.196 0 0)
(-487.195 0 0)
(-487.195 0 0)
(-487.194 0 0)
(-487.195 0 0)
(-487.194 0 0)
(-487.194 0 0)
(-487.194 0 0)
(-487.191 0 0)
(-487.194 0 0)
(-487.194 0 0)
(-487.194 0 0)
(-487.194 0 0)
(-487.192 0 0)
(-487.19 0 0)
(-487.19 0 0)
(-487.161 0 0)
(-487.192 0 0)
(-487.191 0 0)
(-487.192 0 0)
(-487.192 0 0)
(-487.192 0 0)
(-487.19 0 0)
(-487.18 0 0)
(-487.191 0 0)
(-487.19 0 0)
(-487.19 0 0)
(-487.189 0 0)
(-487.189 0 0)
(-487.156 0 0)
(-487.191 0 0)
(-487.19 0 0)
(-487.192 0 0)
(-487.194 0 0)
(-487.196 0 0)
(-487.2 0 0)
(-487.205 0 0)
(-487.211 0 0)
(-487.219 0 0)
(-487.232 0 0)
(-487.244 0 0)
(-487.261 0 0)
(-487.289 0 0)
(-487.327 0 0)
(-487.399 0 0)
(-487.532 0 0)
(-487.82 0 0)
(-488.499 0 0)
(-489.847 0 0)
(-492.07 0 0)
(-497.278 0 0)
(-510.833 0 0)
(-536.963 0 0)
(-605.681 0 0)
(-936.16 0 0)
(-1251.31 0 0)
(-776.96 0 0)
(-676.862 0 0)
(-918.439 0 0)
(-1212.65 0 0)
(-1286.43 0 0)
(-1374.23 0 0)
(-1465.21 0 0)
(-1520.73 0 0)
(-1554.05 0 0)
(-1579.55 0 0)
(-1599.49 0 0)
(-1615.88 0 0)
(-1629.29 0 0)
(-1639.73 0 0)
(-1648.29 0 0)
(-1655.53 0 0)
(-1661.9 0 0)
(-1667.31 0 0)
(-1671.99 0 0)
(-1675.94 0 0)
(-1679.4 0 0)
(-1682.28 0 0)
(-1684.65 0 0)
(-1686.39 0 0)
(-1687.88 0 0)
(-1689.13 0 0)
(-1689.94 0 0)
(-1690.67 0 0)
(-1691.16 0 0)
(-1691.53 0 0)
(-1691.82 0 0)
(-1692.03 0 0)
(-1692.18 0 0)
(-1692.3 0 0)
(-1692.37 0 0)
(-1692.44 0 0)
(-1692.48 0 0)
(-1692.51 0 0)
(-1692.53 0 0)
(-1692.54 0 0)
(-1692.55 0 0)
(-1692.56 0 0)
(-1692.57 0 0)
(-1692.57 0 0)
(-1692.57 0 0)
(-1692.57 0 0)
(-1692.57 0 0)
(-1692.57 0 0)
(-1692.57 0 0)
(-1692.57 0 0)
(-1692.57 0 0)
(-1692.57 0 0)
(-1692.57 0 0)
(-1692.57 0 0)
(-1692.57 0 0)
(-1692.57 0 0)
(-1692.57 0 0)
(-1692.57 0 0)
(-1692.57 0 0)
(-1692.57 0 0)
(-1692.56 0 0)
(-1692.57 0 0)
(-1692.57 0 0)
(-1692.57 0 0)
(-1692.57 0 0)
(-1692.57 0 0)
(-1692.57 0 0)
(-1692.57 0 0)
(-1692.57 0 0)
(-1692.57 0 0)
(-1692.57 0 0)
(-1692.57 0 0)
(-1692.57 0 0)
(-1692.55 0 0)
(-1692.56 0 0)
(-1692.56 0 0)
(-1692.55 0 0)
(-1692.54 0 0)
(-1692.53 0 0)
(-1692.51 0 0)
(-1692.49 0 0)
(-1692.45 0 0)
(-1692.38 0 0)
(-1692.28 0 0)
(-1692.13 0 0)
(-1691.89 0 0)
(-1691.52 0 0)
(-1690.97 0 0)
(-1690.12 0 0)
(-1688.85 0 0)
(-1687.01 0 0)
(-1684.42 0 0)
(-1680.83 0 0)
(-1675.72 0 0)
(-1670.06 0 0)
(-1666.98 0 0)
(-1667.67 0 0)
(-1700.69 0 0)
(-2043.21 0 0)
(-2177.97 0 0)
(-819.314 0 0)
(-789.145 0 0)
(-1111.14 0 0)
(-1487.63 0 0)
(-1644.76 0 0)
(-1818.85 0 0)
(-1994.13 0 0)
(-2128.58 0 0)
(-2235.62 0 0)
(-2327.57 0 0)
(-2406.34 0 0)
(-2473.43 0 0)
(-2529.92 0 0)
(-2576.77 0 0)
(-2615.47 0 0)
(-2647.35 0 0)
(-2673.55 0 0)
(-2694.82 0 0)
(-2712.01 0 0)
(-2725.74 0 0)
(-2736.7 0 0)
(-2745.43 0 0)
(-2752.24 0 0)
(-2757.37 0 0)
(-2761.39 0 0)
(-2764.5 0 0)
(-2766.76 0 0)
(-2768.49 0 0)
(-2769.71 0 0)
(-2770.62 0 0)
(-2771.31 0 0)
(-2771.8 0 0)
(-2772.16 0 0)
(-2772.42 0 0)
(-2772.6 0 0)
(-2772.74 0 0)
(-2772.83 0 0)
(-2772.89 0 0)
(-2772.94 0 0)
(-2772.97 0 0)
(-2772.99 0 0)
(-2773.01 0 0)
(-2773.02 0 0)
(-2773.02 0 0)
(-2773.03 0 0)
(-2773.03 0 0)
(-2773.03 0 0)
(-2773.03 0 0)
(-2773.04 0 0)
(-2773.04 0 0)
(-2773.04 0 0)
(-2773.04 0 0)
(-2773.04 0 0)
(-2773.04 0 0)
(-2773.04 0 0)
(-2773.04 0 0)
(-2773.04 0 0)
(-2773.04 0 0)
(-2773.04 0 0)
(-2773.04 0 0)
(-2773.03 0 0)
(-2773.04 0 0)
(-2773.03 0 0)
(-2773.03 0 0)
(-2773.03 0 0)
(-2773.03 0 0)
(-2773.03 0 0)
(-2773.03 0 0)
(-2773.03 0 0)
(-2773.03 0 0)
(-2773.03 0 0)
(-2773.03 0 0)
(-2773.02 0 0)
(-2773.02 0 0)
(-2773.02 0 0)
(-2773.01 0 0)
(-2772.99 0 0)
(-2772.98 0 0)
(-2772.95 0 0)
(-2772.91 0 0)
(-2772.85 0 0)
(-2772.77 0 0)
(-2772.63 0 0)
(-2772.42 0 0)
(-2772.11 0 0)
(-2771.61 0 0)
(-2770.86 0 0)
(-2769.72 0 0)
(-2767.98 0 0)
(-2765.33 0 0)
(-2761.37 0 0)
(-2755.55 0 0)
(-2747.01 0 0)
(-2734.47 0 0)
(-2717.55 0 0)
(-2696.51 0 0)
(-2668.12 0 0)
(-2653.63 0 0)
(-2974.74 0 0)
(-2798.94 0 0)
(-849.291 0 0)
(-868.539 0 0)
(-1248.69 0 0)
(-1687.54 0 0)
(-1912.18 0 0)
(-2158.99 0 0)
(-2407.54 0 0)
(-2612.66 0 0)
(-2786.77 0 0)
(-2940.19 0 0)
(-3073.83 0 0)
(-3188.57 0 0)
(-3285.81 0 0)
(-3367.1 0 0)
(-3434.39 0 0)
(-3489.65 0 0)
(-3534.69 0 0)
(-3571 0 0)
(-3600.05 0 0)
(-3623.04 0 0)
(-3641.14 0 0)
(-3655.36 0 0)
(-3666.35 0 0)
(-3674.67 0 0)
(-3681.06 0 0)
(-3685.92 0 0)
(-3689.51 0 0)
(-3692.19 0 0)
(-3694.12 0 0)
(-3695.54 0 0)
(-3696.59 0 0)
(-3697.35 0 0)
(-3697.9 0 0)
(-3698.29 0 0)
(-3698.57 0 0)
(-3698.77 0 0)
(-3698.91 0 0)
(-3699.01 0 0)
(-3699.07 0 0)
(-3699.12 0 0)
(-3699.15 0 0)
(-3699.18 0 0)
(-3699.19 0 0)
(-3699.2 0 0)
(-3699.21 0 0)
(-3699.21 0 0)
(-3699.22 0 0)
(-3699.22 0 0)
(-3699.22 0 0)
(-3699.22 0 0)
(-3699.22 0 0)
(-3699.22 0 0)
(-3699.22 0 0)
(-3699.22 0 0)
(-3699.22 0 0)
(-3699.22 0 0)
(-3699.22 0 0)
(-3699.22 0 0)
(-3699.22 0 0)
(-3699.22 0 0)
(-3699.22 0 0)
(-3699.22 0 0)
(-3699.22 0 0)
(-3699.22 0 0)
(-3699.22 0 0)
(-3699.22 0 0)
(-3699.22 0 0)
(-3699.22 0 0)
(-3699.22 0 0)
(-3699.22 0 0)
(-3699.21 0 0)
(-3699.21 0 0)
(-3699.21 0 0)
(-3699.2 0 0)
(-3699.19 0 0)
(-3699.18 0 0)
(-3699.16 0 0)
(-3699.14 0 0)
(-3699.1 0 0)
(-3699.04 0 0)
(-3698.95 0 0)
(-3698.82 0 0)
(-3698.62 0 0)
(-3698.31 0 0)
(-3697.83 0 0)
(-3697.11 0 0)
(-3695.99 0 0)
(-3694.29 0 0)
(-3691.7 0 0)
(-3687.75 0 0)
(-3681.78 0 0)
(-3672.86 0 0)
(-3659.56 0 0)
(-3639.78 0 0)
(-3611.7 0 0)
(-3572.2 0 0)
(-3511.95 0 0)
(-3440.94 0 0)
(-3715.16 0 0)
(-3184.41 0 0)
(-868.874 0 0)
(-919.575 0 0)
(-1338.57 0 0)
(-1822.15 0 0)
(-2098.75 0 0)
(-2404.16 0 0)
(-2713.97 0 0)
(-2979.96 0 0)
(-3212.86 0 0)
(-3421 0 0)
(-3603.9 0 0)
(-3761.77 0 0)
(-3896.07 0 0)
(-4008.75 0 0)
(-4102.14 0 0)
(-4178.76 0 0)
(-4241.02 0 0)
(-4291.07 0 0)
(-4330.94 0 0)
(-4362.39 0 0)
(-4387.02 0 0)
(-4406.23 0 0)
(-4421.01 0 0)
(-4432.23 0 0)
(-4440.77 0 0)
(-4447.22 0 0)
(-4452.01 0 0)
(-4455.55 0 0)
(-4458.12 0 0)
(-4460 0 0)
(-4461.38 0 0)
(-4462.38 0 0)
(-4463.1 0 0)
(-4463.62 0 0)
(-4463.99 0 0)
(-4464.25 0 0)
(-4464.43 0 0)
(-4464.55 0 0)
(-4464.64 0 0)
(-4464.7 0 0)
(-4464.75 0 0)
(-4464.78 0 0)
(-4464.8 0 0)
(-4464.81 0 0)
(-4464.82 0 0)
(-4464.82 0 0)
(-4464.83 0 0)
(-4464.83 0 0)
(-4464.83 0 0)
(-4464.83 0 0)
(-4464.83 0 0)
(-4464.84 0 0)
(-4464.84 0 0)
(-4464.84 0 0)
(-4464.84 0 0)
(-4464.84 0 0)
(-4464.84 0 0)
(-4464.84 0 0)
(-4464.84 0 0)
(-4464.84 0 0)
(-4464.84 0 0)
(-4464.84 0 0)
(-4464.84 0 0)
(-4464.83 0 0)
(-4464.83 0 0)
(-4464.83 0 0)
(-4464.83 0 0)
(-4464.83 0 0)
(-4464.83 0 0)
(-4464.83 0 0)
(-4464.83 0 0)
(-4464.82 0 0)
(-4464.82 0 0)
(-4464.81 0 0)
(-4464.8 0 0)
(-4464.78 0 0)
(-4464.76 0 0)
(-4464.72 0 0)
(-4464.67 0 0)
(-4464.6 0 0)
(-4464.48 0 0)
(-4464.31 0 0)
(-4464.04 0 0)
(-4463.64 0 0)
(-4463.03 0 0)
(-4462.08 0 0)
(-4460.64 0 0)
(-4458.43 0 0)
(-4455.06 0 0)
(-4449.91 0 0)
(-4442.08 0 0)
(-4430.31 0 0)
(-4412.58 0 0)
(-4385.95 0 0)
(-4347.16 0 0)
(-4289.3 0 0)
(-4195.81 0 0)
(-4063.99 0 0)
(-4278.38 0 0)
(-3415.05 0 0)
(-880.319 0 0)
(-948.4 0 0)
(-1391.04 0 0)
(-1904.65 0 0)
(-2219.21 0 0)
(-2569.84 0 0)
(-2928.9 0 0)
(-3245.26 0 0)
(-3527.73 0 0)
(-3782.64 0 0)
(-4008.04 0 0)
(-4203.36 0 0)
(-4370 0 0)
(-4510.13 0 0)
(-4626.38 0 0)
(-4721.72 0 0)
(-4799.08 0 0)
(-4861.18 0 0)
(-4910.54 0 0)
(-4949.39 0 0)
(-4979.74 0 0)
(-5003.31 0 0)
(-5021.41 0 0)
(-5035.15 0 0)
(-5045.57 0 0)
(-5053.4 0 0)
(-5059.23 0 0)
(-5063.53 0 0)
(-5066.66 0 0)
(-5068.94 0 0)
(-5070.61 0 0)
(-5071.82 0 0)
(-5072.69 0 0)
(-5073.31 0 0)
(-5073.75 0 0)
(-5074.06 0 0)
(-5074.28 0 0)
(-5074.43 0 0)
(-5074.54 0 0)
(-5074.61 0 0)
(-5074.66 0 0)
(-5074.7 0 0)
(-5074.72 0 0)
(-5074.74 0 0)
(-5074.75 0 0)
(-5074.76 0 0)
(-5074.76 0 0)
(-5074.77 0 0)
(-5074.77 0 0)
(-5074.77 0 0)
(-5074.77 0 0)
(-5074.77 0 0)
(-5074.77 0 0)
(-5074.77 0 0)
(-5074.77 0 0)
(-5074.77 0 0)
(-5074.77 0 0)
(-5074.77 0 0)
(-5074.77 0 0)
(-5074.77 0 0)
(-5074.78 0 0)
(-5074.77 0 0)
(-5074.77 0 0)
(-5074.77 0 0)
(-5074.77 0 0)
(-5074.77 0 0)
(-5074.77 0 0)
(-5074.77 0 0)
(-5074.77 0 0)
(-5074.77 0 0)
(-5074.76 0 0)
(-5074.76 0 0)
(-5074.75 0 0)
(-5074.74 0 0)
(-5074.73 0 0)
(-5074.71 0 0)
(-5074.68 0 0)
(-5074.64 0 0)
(-5074.58 0 0)
(-5074.48 0 0)
(-5074.35 0 0)
(-5074.14 0 0)
(-5073.82 0 0)
(-5073.34 0 0)
(-5072.6 0 0)
(-5071.46 0 0)
(-5069.73 0 0)
(-5067.07 0 0)
(-5063.01 0 0)
(-5056.8 0 0)
(-5047.33 0 0)
(-5033.02 0 0)
(-5011.32 0 0)
(-4978.46 0 0)
(-4929.79 0 0)
(-4854.53 0 0)
(-4728.61 0 0)
(-4537.51 0 0)
(-4691.73 0 0)
(-3553.05 0 0)
(-885.896 0 0)
(-961.594 0 0)
(-1417.02 0 0)
(-1949.19 0 0)
(-2289.9 0 0)
(-2673.84 0 0)
(-3070.72 0 0)
(-3426.89 0 0)
(-3749.23 0 0)
(-4042.24 0 0)
(-4302.53 0 0)
(-4528.8 0 0)
(-4722.25 0 0)
(-4885.17 0 0)
(-5020.44 0 0)
(-5131.37 0 0)
(-5221.3 0 0)
(-5293.43 0 0)
(-5350.68 0 0)
(-5395.7 0 0)
(-5430.8 0 0)
(-5458 0 0)
(-5478.86 0 0)
(-5494.69 0 0)
(-5506.66 0 0)
(-5515.64 0 0)
(-5522.32 0 0)
(-5527.25 0 0)
(-5530.84 0 0)
(-5533.47 0 0)
(-5535.37 0 0)
(-5536.75 0 0)
(-5537.74 0 0)
(-5538.45 0 0)
(-5538.96 0 0)
(-5539.31 0 0)
(-5539.56 0 0)
(-5539.73 0 0)
(-5539.86 0 0)
(-5539.94 0 0)
(-5540 0 0)
(-5540.04 0 0)
(-5540.07 0 0)
(-5540.08 0 0)
(-5540.1 0 0)
(-5540.11 0 0)
(-5540.11 0 0)
(-5540.11 0 0)
(-5540.12 0 0)
(-5540.12 0 0)
(-5540.12 0 0)
(-5540.12 0 0)
(-5540.12 0 0)
(-5540.12 0 0)
(-5540.12 0 0)
(-5540.12 0 0)
(-5540.12 0 0)
(-5540.12 0 0)
(-5540.12 0 0)
(-5540.12 0 0)
(-5540.12 0 0)
(-5540.12 0 0)
(-5540.12 0 0)
(-5540.12 0 0)
(-5540.12 0 0)
(-5540.12 0 0)
(-5540.12 0 0)
(-5540.12 0 0)
(-5540.12 0 0)
(-5540.11 0 0)
(-5540.11 0 0)
(-5540.1 0 0)
(-5540.1 0 0)
(-5540.09 0 0)
(-5540.07 0 0)
(-5540.05 0 0)
(-5540.02 0 0)
(-5539.97 0 0)
(-5539.9 0 0)
(-5539.79 0 0)
(-5539.63 0 0)
(-5539.4 0 0)
(-5539.03 0 0)
(-5538.48 0 0)
(-5537.64 0 0)
(-5536.35 0 0)
(-5534.37 0 0)
(-5531.34 0 0)
(-5526.7 0 0)
(-5519.59 0 0)
(-5508.75 0 0)
(-5492.28 0 0)
(-5467.2 0 0)
(-5428.98 0 0)
(-5371.71 0 0)
(-5280.97 0 0)
(-5125.85 0 0)
(-4882.21 0 0)
(-4984.64 0 0)
(-3637.55 0 0)
(-887.618 0 0)
(-965.173 0 0)
(-1426.64 0 0)
(-1968.98 0 0)
(-2326.4 0 0)
(-2733.49 0 0)
(-3157.62 0 0)
(-3543.24 0 0)
(-3895.59 0 0)
(-4217.58 0 0)
(-4504.6 0 0)
(-4754.66 0 0)
(-4968.8 0 0)
(-5149.33 0 0)
(-5299.3 0 0)
(-5422.28 0 0)
(-5521.95 0 0)
(-5601.83 0 0)
(-5665.19 0 0)
(-5714.97 0 0)
(-5753.75 0 0)
(-5783.75 0 0)
(-5806.73 0 0)
(-5824.17 0 0)
(-5837.34 0 0)
(-5847.21 0 0)
(-5854.54 0 0)
(-5859.96 0 0)
(-5863.91 0 0)
(-5866.79 0 0)
(-5868.88 0 0)
(-5870.39 0 0)
(-5871.48 0 0)
(-5872.26 0 0)
(-5872.81 0 0)
(-5873.19 0 0)
(-5873.47 0 0)
(-5873.66 0 0)
(-5873.79 0 0)
(-5873.88 0 0)
(-5873.95 0 0)
(-5873.99 0 0)
(-5874.02 0 0)
(-5874.04 0 0)
(-5874.05 0 0)
(-5874.06 0 0)
(-5874.07 0 0)
(-5874.07 0 0)
(-5874.08 0 0)
(-5874.08 0 0)
(-5874.08 0 0)
(-5874.08 0 0)
(-5874.08 0 0)
(-5874.08 0 0)
(-5874.08 0 0)
(-5874.08 0 0)
(-5874.08 0 0)
(-5874.08 0 0)
(-5874.08 0 0)
(-5874.08 0 0)
(-5874.08 0 0)
(-5874.08 0 0)
(-5874.08 0 0)
(-5874.08 0 0)
(-5874.08 0 0)
(-5874.08 0 0)
(-5874.08 0 0)
(-5874.08 0 0)
(-5874.08 0 0)
(-5874.07 0 0)
(-5874.07 0 0)
(-5874.06 0 0)
(-5874.06 0 0)
(-5874.05 0 0)
(-5874.03 0 0)
(-5874 0 0)
(-5873.97 0 0)
(-5873.91 0 0)
(-5873.84 0 0)
(-5873.72 0 0)
(-5873.55 0 0)
(-5873.29 0 0)
(-5872.89 0 0)
(-5872.28 0 0)
(-5871.36 0 0)
(-5869.94 0 0)
(-5867.77 0 0)
(-5864.45 0 0)
(-5859.36 0 0)
(-5851.56 0 0)
(-5839.64 0 0)
(-5821.49 0 0)
(-5793.74 0 0)
(-5751.27 0 0)
(-5687.08 0 0)
(-5583.75 0 0)
(-5404.82 0 0)
(-5119.23 0 0)
(-5182.5 0 0)
(-3690.2 0 0)
(-887.105 0 0)
(-964.046 0 0)
(-1428.16 0 0)
(-1974.97 0 0)
(-2341.83 0 0)
(-2763.46 0 0)
(-3205.19 0 0)
(-3610.24 0 0)
(-3982.7 0 0)
(-4324.28 0 0)
(-4629.45 0 0)
(-4895.72 0 0)
(-5123.97 0 0)
(-5316.52 0 0)
(-5476.54 0 0)
(-5607.76 0 0)
(-5714.08 0 0)
(-5799.25 0 0)
(-5866.79 0 0)
(-5919.82 0 0)
(-5961.1 0 0)
(-5993 0 0)
(-6017.43 0 0)
(-6035.96 0 0)
(-6049.94 0 0)
(-6060.42 0 0)
(-6068.2 0 0)
(-6073.94 0 0)
(-6078.14 0 0)
(-6081.2 0 0)
(-6083.42 0 0)
(-6085.02 0 0)
(-6086.17 0 0)
(-6086.99 0 0)
(-6087.57 0 0)
(-6087.98 0 0)
(-6088.27 0 0)
(-6088.47 0 0)
(-6088.61 0 0)
(-6088.71 0 0)
(-6088.78 0 0)
(-6088.82 0 0)
(-6088.86 0 0)
(-6088.88 0 0)
(-6088.89 0 0)
(-6088.9 0 0)
(-6088.91 0 0)
(-6088.91 0 0)
(-6088.92 0 0)
(-6088.92 0 0)
(-6088.92 0 0)
(-6088.92 0 0)
(-6088.92 0 0)
(-6088.92 0 0)
(-6088.92 0 0)
(-6088.92 0 0)
(-6088.92 0 0)
(-6088.92 0 0)
(-6088.92 0 0)
(-6088.92 0 0)
(-6088.92 0 0)
(-6088.92 0 0)
(-6088.92 0 0)
(-6088.92 0 0)
(-6088.92 0 0)
(-6088.92 0 0)
(-6088.92 0 0)
(-6088.92 0 0)
(-6088.92 0 0)
(-6088.91 0 0)
(-6088.91 0 0)
(-6088.9 0 0)
(-6088.9 0 0)
(-6088.88 0 0)
(-6088.87 0 0)
(-6088.84 0 0)
(-6088.8 0 0)
(-6088.74 0 0)
(-6088.66 0 0)
(-6088.54 0 0)
(-6088.36 0 0)
(-6088.08 0 0)
(-6087.66 0 0)
(-6087.02 0 0)
(-6086.04 0 0)
(-6084.54 0 0)
(-6082.24 0 0)
(-6078.72 0 0)
(-6073.32 0 0)
(-6065.04 0 0)
(-6052.38 0 0)
(-6033.07 0 0)
(-6003.47 0 0)
(-5958.04 0 0)
(-5889 0 0)
(-5776.77 0 0)
(-5581.04 0 0)
(-5266.43 0 0)
(-5304.32 0 0)
(-3721.79 0 0)
(-886.136 0 0)
(-962.329 0 0)
(-1427.54 0 0)
(-1975.72 0 0)
(-2346.83 0 0)
(-2775.55 0 0)
(-3225.96 0 0)
(-3640.72 0 0)
(-4023.3 0 0)
(-4374.78 0 0)
(-4689.11 0 0)
(-4963.53 0 0)
(-5198.87 0 0)
(-5397.47 0 0)
(-5562.56 0 0)
(-5697.93 0 0)
(-5807.6 0 0)
(-5895.45 0 0)
(-5965.08 0 0)
(-6019.75 0 0)
(-6062.3 0 0)
(-6095.16 0 0)
(-6120.3 0 0)
(-6139.39 0 0)
(-6153.78 0 0)
(-6164.55 0 0)
(-6172.56 0 0)
(-6178.47 0 0)
(-6182.79 0 0)
(-6185.94 0 0)
(-6188.22 0 0)
(-6189.87 0 0)
(-6191.05 0 0)
(-6191.89 0 0)
(-6192.49 0 0)
(-6192.91 0 0)
(-6193.21 0 0)
(-6193.42 0 0)
(-6193.56 0 0)
(-6193.66 0 0)
(-6193.73 0 0)
(-6193.78 0 0)
(-6193.81 0 0)
(-6193.84 0 0)
(-6193.85 0 0)
(-6193.86 0 0)
(-6193.87 0 0)
(-6193.87 0 0)
(-6193.88 0 0)
(-6193.88 0 0)
(-6193.88 0 0)
(-6193.88 0 0)
(-6193.88 0 0)
(-6193.88 0 0)
(-6193.88 0 0)
(-6193.88 0 0)