/*--------------------------------*- C++ -*----------------------------------*\
| =========                 |                                                 |
| \\      /  F ield         | foam-extend: Open Source CFD                    |
|  \\    /   O peration     | Version:     5.0                                |
|   \\  /    A nd           | Web:         http://www.foam-extend.org         |
|    \\/     M anipulation  |                                                 |
\*---------------------------------------------------------------------------*/
FoamFile
{
    version     2.0;
    format      ascii;
    class       volScalarField;
    location    "0.035";
    object      p;
}
// * * * * * * * * * * * * * * * * * * * * * * * * * * * * * * * * * * * * * //

dimensions      [1 -1 -2 0 0 0 0];

internalField   nonuniform List<scalar> 
4000
(
14056.8
13902.9
13883.2
13819.4
13728.8
13648.2
13571
13487.9
13399
13306.9
13210
13108.8
13004.7
12895.2
12780
12659.9
12535.6
12407.6
12275.5
12140.5
12003.4
11864.1
11723.2
11580.7
11437.1
11292.8
11147.8
11002.2
10856.2
10709.8
10563.2
10416.4
10269.5
10122.5
9975.52
9828.38
9681.18
9533.95
9386.7
9239.43
9092.16
8944.88
8797.59
8650.3
8503
8355.7
8208.44
8061.21
7913.94
7766.62
7619.32
7472.09
7324.86
7177.56
7030.24
6882.93
6735.63
6588.4
6441.17
6293.87
6146.56
5999.26
5851.96
5704.65
5557.34
5410.04
5262.81
5115.58
4968.28
4820.96
4673.66
4526.43
4379.2
4231.91
4084.61
3937.31
3790.02
3642.73
3495.45
3348.18
3200.92
3053.69
2906.48
2759.32
2612.23
2465.23
2318.38
2171.73
2025.39
1879.5
1734.21
1589.8
1446.63
1305.2
1165.95
1028.67
897.5
799.969
795.804
415.993
14045.6
13892.3
13876.5
13812.3
13721.5
13641.8
13565.4
13482.7
13394.4
13302.9
13206.4
13105.6
13001.9
12892.8
12778
12658.2
12534.2
12406.4
12274.5
12139.7
12002.8
11863.6
11722.8
11580.4
11436.9
11292.6
11147.6
11002.1
10856.1
10709.8
10563.2
10416.4
10269.5
10122.5
9975.51
9828.37
9681.17
9533.94
9386.69
9239.43
9092.16
8944.88
8797.59
8650.3
8503
8355.7
8208.44
8061.21
7913.94
7766.62
7619.32
7472.09
7324.86
7177.56
7030.24
6882.93
6735.63
6588.4
6441.17
6293.87
6146.56
5999.26
5851.96
5704.65
5557.34
5410.04
5262.81
5115.58
4968.28
4820.96
4673.66
4526.43
4379.2
4231.91
4084.61
3937.31
3790.02
3642.73
3495.45
3348.18
3200.93
3053.7
2906.49
2759.34
2612.26
2465.28
2318.45
2171.84
2025.56
1879.75
1734.57
1590.34
1447.38
1306.26
1167.43
1030.49
898.416
797.052
799.032
421.982
14042.1
13883.4
13873.7
13809.2
13717
13638
13562.3
13480
13391.9
13300.7
13204.4
13103.8
13000.5
12891.6
12777
12657.4
12533.6
12405.9
12274.1
12139.4
12002.6
11863.4
11722.6
11580.3
11436.8
11292.6
11147.6
11002.1
10856.1
10709.8
10563.2
10416.4
10269.5
10122.5
9975.51
9828.37
9681.17
9533.94
9386.69
9239.43
9092.16
8944.88
8797.59
8650.3
8503
8355.7
8208.44
8061.21
7913.94
7766.62
7619.32
7472.09
7324.86
7177.56
7030.24
6882.93
6735.62
6588.4
6441.17
6293.87
6146.56
5999.26
5851.96
5704.65
5557.34
5410.03
5262.81
5115.59
4968.28
4820.96
4673.66
4526.43
4379.21
4231.91
4084.61
3937.31
3790.02
3642.73
3495.45
3348.19
3200.93
3053.7
2906.5
2759.35
2612.28
2465.3
2318.49
2171.89
2025.64
1879.85
1734.73
1590.57
1447.71
1306.73
1168.12
1031.27
898.005
793.468
807.59
433.743
14049.5
13881.2
13877.9
13812.6
13718
13639.1
13563.8
13481.4
13393
13301.7
13205.3
13104.6
13001.4
12892.4
12777.7
12658.1
12534.1
12406.4
12274.6
12139.7
12002.9
11863.6
11722.9
11580.5
11436.9
11292.7
11147.7
11002.1
10856.2
10709.8
10563.2
10416.4
10269.5
10122.5
9975.53
9828.37
9681.17
9533.94
9386.7
9239.43
9092.16
8944.88
8797.59
8650.3
8503
8355.7
8208.44
8061.21
7913.94
7766.62
7619.31
7472.09
7324.87
7177.56
7030.24
6882.93
6735.62
6588.4
6441.18
6293.87
6146.56
5999.26
5851.96
5704.65
5557.34
5410.03
5262.81
5115.6
4968.28
4820.96
4673.65
4526.43
4379.21
4231.91
4084.61
3937.31
3790.02
3642.73
3495.45
3348.18
3200.93
3053.7
2906.5
2759.34
2612.27
2465.29
2318.46
2171.86
2025.59
1879.79
1734.64
1590.43
1447.5
1306.44
1167.77
1030.7
896.02
787.924
809.036
439.775
14069.4
13888.2
13890.9
13824.1
13726
13646.5
13571.1
13488
13398.7
13306.5
13209.5
13108.6
13005
12895.6
12780.4
12660.4
12536.1
12408
12275.9
12140.9
12003.7
11864.3
11723.4
11580.9
11437.3
11292.9
11147.9
11002.3
10856.3
10709.9
10563.3
10416.4
10269.5
10122.6
9975.56
9828.39
9681.18
9533.95
9386.7
9239.44
9092.16
8944.88
8797.59
8650.3
8503
8355.7
8208.43
8061.21
7913.95
7766.62
7619.3
7472.09
7324.88
7177.56
7030.24
6882.93
6735.61
6588.4
6441.19
6293.87
6146.56
5999.26
5851.96
5704.65
5557.34
5410.02
5262.81
5115.61
4968.28
4820.96
4673.64
4526.43
4379.22
4231.91
4084.61
3937.31
3790.02
3642.73
3495.45
3348.18
3200.93
3053.69
2906.48
2759.32
2612.23
2465.23
2318.39
2171.75
2025.41
1879.54
1734.28
1589.9
1446.72
1305.34
1166.29
1028.66
892.339
779.252
794.601
431.77
14101
13905
13912.7
13843.9
13741.4
13660.7
13584.5
13500.1
13409.2
13315.4
13217.5
13116.1
13011.5
12901.1
12785.2
12664.4
12539.4
12410.7
12278.1
12142.8
12005.2
11865.5
11724.4
11581.6
11437.8
11293.4
11148.2
11002.5
10856.5
10710
10563.4
10416.5
10269.5
10122.6
9975.6
9828.41
9681.19
9533.96
9386.71
9239.44
9092.17
8944.88
8797.59
8650.3
8503
8355.69
8208.43
8061.22
7913.96
7766.62
7619.28
7472.09
7324.89
7177.56
7030.24
6882.93
6735.59
6588.4
6441.2
6293.87
6146.56
5999.26
5851.96
5704.65
5557.34
5410
5262.81
5115.62
4968.29
4820.96
4673.63
4526.43
4379.23
4231.91
4084.61
3937.31
3790.02
3642.73
3495.45
3348.17
3200.91
3053.67
2906.46
2759.28
2612.17
2465.15
2318.26
2171.55
2025.12
1879.11
1733.66
1588.99
1445.39
1303.44
1163.67
1025.12
886.991
767.271
761.075
406.493
14142.7
13930.9
13942.7
13871.2
13763.7
13681.3
13603.6
13517.1
13424
13328.5
13229.6
13126.9
13020.8
12908.9
12791.8
12670
12544
12414.4
12281.2
12145.4
12007.2
11867
11725.6
11582.6
11438.5
11293.9
11148.6
11002.9
10856.7
10710.2
10563.5
10416.6
10269.6
10122.6
9975.65
9828.44
9681.21
9533.97
9386.72
9239.45
9092.17
8944.89
8797.6
8650.3
8503
8355.69
8208.42
8061.23
7913.97
7766.62
7619.27
7472.09
7324.91
7177.56
7030.24
6882.93
6735.57
6588.4
6441.22
6293.87
6146.56
5999.26
5851.96
5704.65
5557.34
5409.98
5262.81
5115.64
4968.29
4820.96
4673.61
4526.43
4379.25
4231.91
4084.61
3937.31
3790.01
3642.72
3495.44
3348.16
3200.9
3053.65
2906.42
2759.23
2612.09
2465.02
2318.07
2171.27
2024.7
1878.49
1732.76
1587.68
1443.48
1300.7
1159.87
1020.03
880.008
752.506
710.768
366.059
14191.7
13964.3
13978.9
13904.6
13791.7
13707.4
13627.7
13538.5
13443.1
13345.6
13244.9
13140.5
13032.4
12918.7
12800.1
12676.9
12549.7
12419
12285
12148.5
12009.6
11868.9
11727.1
11583.7
11439.5
11294.6
11149.1
11003.2
10857
10710.4
10563.6
10416.7
10269.6
10122.7
9975.72
9828.48
9681.24
9533.99
9386.73
9239.46
9092.18
8944.89
8797.6
8650.3
8503
8355.68
8208.41
8061.23
7913.98
7766.63
7619.24
7472.09
7324.94
7177.56
7030.24
6882.93
6735.55
6588.39
6441.24
6293.87
6146.56
5999.27
5851.96
5704.65
5557.34
5409.96
5262.81
5115.66
4968.29
4820.96
4673.59
4526.43
4379.27
4231.91
4084.61
3937.31
3790.01
3642.72
3495.43
3348.15
3200.88
3053.62
2906.37
2759.16
2611.99
2464.86
2317.82
2170.91
2024.17
1877.7
1731.6
1585.98
1441
1297.15
1154.91
1013.41
871.461
735.907
649.753
316.197
14245
14002.9
14019.3
13942.2
13824.1
13737.4
13655.4
13563.1
13465.2
13365.5
13262.7
13156.2
13045.7
12930
12809.6
12684.8
12556.2
12424.3
12289.3
12151.9
12012.4
11871.1
11728.7
11585
11440.5
11295.4
11149.7
11003.7
10857.4
10710.7
10563.8
10416.9
10269.7
10122.8
9975.8
9828.51
9681.26
9534.01
9386.74
9239.46
9092.18
8944.89
8797.6
8650.31
8502.99
8355.67
8208.4
8061.25
7914
7766.63
7619.21
7472.09
7324.97
7177.56
7030.24
6882.93
6735.52
6588.39
6441.27
6293.87
6146.56
5999.27
5851.96
5704.65
5557.34
5409.93
5262.81
5115.69
4968.29
4820.96
4673.56
4526.43
4379.29
4231.91
4084.61
3937.3
3790
3642.71
3495.42
3348.13
3200.85
3053.58
2906.31
2759.07
2611.86
2464.67
2317.53
2170.47
2023.52
1876.74
1730.19
1583.92
1438
1292.84
1148.87
1005.37
861.529
718.603
585.746
264.114
14299.8
14044.4
14061.8
13982.1
13859.2
13770.2
13685.6
13590.2
13489.7
13387.5
13282.2
13173.2
13060.3
12942.4
12819.9
12693.4
12563.3
12430
12293.9
12155.6
12015.3
11873.4
11730.5
11586.4
11441.6
11296.2
11150.3
11004.1
10857.7
10710.9
10564
10417
10269.8
10122.8
9975.9
9828.56
9681.29
9534.03
9386.75
9239.47
9092.19
8944.9
8797.61
8650.31
8502.99
8355.66
8208.39
8061.26
7914.02
7766.63
7619.17
7472.09
7325.01
7177.57
7030.24
6882.92
6735.48
6588.39
6441.31
6293.86
6146.56
5999.27
5851.96
5704.65
5557.33
5409.89
5262.8
5115.73
4968.29
4820.96
4673.52
4526.42
4379.33
4231.91
4084.61
3937.3
3790
3642.7
3495.4
3348.11
3200.82
3053.53
2906.25
2758.97
2611.71
2464.44
2317.2
2169.98
2022.78
1875.65
1728.57
1581.55
1434.55
1287.87
1141.87
996.044
850.334
701.165
524.556
214.913
14353.6
14086.7
14104.5
14022.6
13895.6
13804.2
13717.2
13618.8
13515.5
13410.6
13302.7
13191.1
13075.5
12955.3
12830.7
12702.3
12570.6
12436
12298.7
12159.4
12018.3
11875.8
11732.3
11587.8
11442.7
11297
11150.9
11004.6
10858.1
10711.2
10564.2
10417.1
10269.8
10122.9
9975.98
9828.6
9681.31
9534.05
9386.77
9239.48
9092.2
8944.9
8797.61
8650.31
8502.99
8355.64
8208.37
8061.28
7914.03
7766.63
7619.14
7472.09
7325.04
7177.57
7030.24
6882.92
6735.44
6588.39
6441.35
6293.86
6146.56
5999.27
5851.96
5704.65
5557.33
5409.86
5262.8
5115.77
4968.29
4820.96
4673.48
4526.42
4379.36
4231.91
4084.61
3937.29
3789.99
3642.69
3495.39
3348.09
3200.79
3053.49
2906.18
2758.87
2611.54
2464.2
2316.83
2169.43
2021.97
1874.43
1726.78
1578.92
1430.72
1282.34
1134.04
985.582
837.93
683.33
466.875
168.925
14404.4
14128
14145.7
14062.1
13931.9
13838.3
13749
13647.8
13541.7
13434.2
13323.6
13209.3
13091
12968.3
12841.6
12711.4
12578
12442
12303.5
12163.2
12021.4
11878.2
11734.2
11589.3
11443.8
11297.8
11151.5
11005.1
10858.4
10711.4
10564.4
10417.3
10270
10123
9976
9828.63
9681.34
9534.06
9386.78
9239.49
9092.2
8944.91
8797.61
8650.31
8503
8355.66
8208.39
8061.26
7914.02
7766.63
7619.17
7472.09
7325
7177.56
7030.24
6882.92
6735.48
6588.39
6441.31
6293.86
6146.56
5999.27
5851.96
5704.65
5557.34
5409.89
5262.81
5115.73
4968.29
4820.96
4673.52
4526.42
4379.32
4231.9
4084.6
3937.29
3789.98
3642.68
3495.38
3348.07
3200.76
3053.44
2906.1
2758.75
2611.37
2463.94
2316.45
2168.85
2021.1
1873.15
1724.89
1576.13
1426.66
1276.46
1125.64
974.303
824.572
664.677
410.14
123.767
14450.9
14166.8
14183.9
14099.4
13966.8
13871.3
13780
13676.3
13567.7
13457.4
13344.2
13227.2
13106.3
12981.2
12852.4
12720.3
12585.3
12447.8
12308.2
12166.9
12024.3
11880.5
11735.9
11590.6
11444.8
11298.6
11152.1
11005.5
10858.7
10711.7
10564.6
10417.4
10270.1
10123.1
9976.01
9828.66
9681.36
9534.08
9386.79
9239.5
9092.21
8944.91
8797.62
8650.32
8503
8355.68
8208.41
8061.25
7914
7766.63
7619.22
7472.09
7324.96
7177.56
7030.24
6882.93
6735.52
6588.39
6441.27
6293.86
6146.56
5999.26
5851.96
5704.65
5557.34
5409.94
5262.81
5115.69
4968.29
4820.96
4673.55
4526.42
4379.28
4231.9
4084.59
3937.28
3789.98
3642.67
3495.36
3348.05
3200.72
3053.39
2906.03
2758.64
2611.2
2463.68
2316.05
2168.26
2020.23
1871.84
1722.95
1573.28
1422.49
1270.4
1116.95
962.532
810.495
644.935
353.664
79.0472
14492
14201.9
14218.4
14133.2
13998.9
13901.9
13808.9
13703.1
13592.2
13479.6
13363.8
13244.3
13120.8
12993.5
12862.7
12728.7
12592.2
12453.4
12312.6
12170.4
12027.1
11882.7
11737.6
11591.9
11445.8
11299.4
11152.7
11005.9
10859
10711.9
10564.7
10417.5
10270.2
10123.1
9976.02
9828.69
9681.38
9534.09
9386.8
9239.51
9092.21
8944.92
8797.62
8650.32
8503.01
8355.69
8208.42
8061.24
7913.98
7766.63
7619.25
7472.09
7324.93
7177.56
7030.24
6882.93
6735.55
6588.39
6441.24
6293.86
6146.55
5999.26
5851.96
5704.65
5557.34
5409.97
5262.81
5115.66
4968.28
4820.96
4673.58
4526.42
4379.25
4231.89
4084.58
3937.27
3789.97
3642.66
3495.35
3348.02
3200.69
3053.34
2905.95
2758.52
2611.03
2463.43
2315.67
2167.69
2019.36
1870.56
1721.05
1570.47
1418.38
1264.4
1108.26
950.683
796.163
624.663
298.962
36.1215
14527.3
14232.7
14248.4
14162.8
14027.6
13929.4
13835
13727.5
13614.6
13499.7
13381.7
13259.9
13134.2
13004.8
12872
12736.5
12598.5
12458.4
12316.7
12173.6
12029.6
11884.7
11739.1
11593.1
11446.7
11300.1
11153.2
11006.3
10859.3
10712.1
10564.9
10417.6
10270.3
10123.2
9976.04
9828.71
9681.4
9534.11
9386.81
9239.52
9092.22
8944.92
8797.62
8650.32
8503.02
8355.71
8208.43
8061.23
7913.97
7766.63
7619.27
7472.09
7324.91
7177.56
7030.24
6882.93
6735.58
6588.39
6441.21
6293.86
6146.55
5999.26
5851.96
5704.65
5557.35
5409.99
5262.81
5115.63
4968.28
4820.96
4673.61
4526.42
4379.23
4231.89
4084.58
3937.27
3789.96
3642.65
3495.33
3348
3200.66
3053.29
2905.88
2758.42
2610.87
2463.19
2315.31
2167.15
2018.56
1869.35
1719.26
1567.83
1414.49
1258.71
1099.98
939.309
782.279
604.854
248.122
-3.42271
14556.4
14258.6
14273.5
14187.8
14052
13953
13857.6
13748.7
13634.1
13517.4
13397.4
13273.5
13145.8
13014.6
12880.3
12743.2
12604
12462.9
12320.2
12176.4
12031.8
11886.4
11740.4
11594.1
11447.5
11300.6
11153.6
11006.6
10859.5
10712.3
10565
10417.7
10270.4
10123.2
9976.05
9828.73
9681.42
9534.12
9386.82
9239.52
9092.22
8944.93
8797.63
8650.33
8503.02
8355.72
8208.44
8061.23
7913.96
7766.63
7619.29
7472.08
7324.89
7177.55
7030.24
6882.93
6735.6
6588.39
6441.19
6293.86
6146.55
5999.26
5851.96
5704.66
5557.35
5410.01
5262.81
5115.61
4968.28
4820.96
4673.62
4526.41
4379.21
4231.88
4084.57
3937.26
3789.95
3642.64
3495.32
3347.98
3200.63
3053.25
2905.82
2758.32
2610.73
2462.97
2314.99
2166.66
2017.83
1868.27
1717.65
1565.45
1410.99
1253.57
1092.45
928.908
769.51
586.524
203.202
-38.1409
14579.4
14279.4
14293.6
14207.9
14071.8
13972.3
13876.1
13766.1
13650.2
13532.1
13410.5
13284.9
13155.6
13022.8
12887.1
12748.9
12608.6
12466.5
12323.2
12178.8
12033.6
11887.8
11741.5
11594.9
11448.1
11301.1
11154
11006.9
10859.7
10712.4
10565.1
10417.8
10270.5
10123.3
9976.06
9828.75
9681.43
9534.13
9386.83
9239.53
9092.23
8944.93
8797.63
8650.33
8503.03
8355.73
8208.45
8061.22
7913.95
7766.63
7619.31
7472.08
7324.87
7177.55
7030.24
6882.93
6735.61
6588.39
6441.17
6293.85
6146.55
5999.26
5851.96
5704.66
5557.35
5410.03
5262.81
5115.6
4968.28
4820.96
4673.64
4526.41
4379.19
4231.87
4084.57
3937.26
3789.95
3642.63
3495.31
3347.97
3200.61
3053.21
2905.77
2758.24
2610.6
2462.79
2314.72
2166.25
2017.22
1867.36
1716.29
1563.43
1408.01
1249.18
1086
919.957
758.496
570.559
165.911
-66.8742
14596.3
14295
14308.6
14222.9
14086.8
13987
13890.2
13779.5
13662.6
13543.4
13420.6
13293.7
13163.1
13029.2
12892.4
12753.2
12612.1
12469.4
12325.4
12180.5
12035
11888.9
11742.3
11595.5
11448.6
11301.5
11154.3
11007.1
10859.8
10712.5
10565.2
10417.9
10270.6
10123.3
9976.07
9828.76
9681.44
9534.14
9386.83
9239.53
9092.23
8944.93
8797.63
8650.33
8503.03
8355.73
8208.46
8061.22
7913.95
7766.63
7619.32
7472.08
7324.86
7177.55
7030.24
6882.94
6735.62
6588.39
6441.16
6293.85
6146.55
5999.26
5851.96
5704.66
5557.36
5410.04
5262.81
5115.58
4968.27
4820.96
4673.65
4526.41
4379.18
4231.87
4084.56
3937.25
3789.94
3642.63
3495.3
3347.96
3200.59
3053.18
2905.72
2758.18
2610.51
2462.65
2314.5
2165.93
2016.74
1866.64
1715.22
1561.84
1405.67
1245.72
1080.9
912.869
749.777
557.715
137.438
-88.8349
14607.4
14305.3
14318.4
14232.8
14096.8
13996.7
13899.6
13788.4
13671
13551
13427.4
13299.7
13168.2
13033.5
12896
12756.2
12614.5
12471.3
12327
12181.8
12035.9
11889.6
11742.9
11596
11448.9
11301.7
11154.5
11007.2
10859.9
10712.6
10565.3
10417.9
10270.6
10123.3
9976.08
9828.76
9681.45
9534.14
9386.84
9239.53
9092.23
8944.93
8797.63
8650.34
8503.04
8355.74
8208.46
8061.21
7913.94
7766.64
7619.33
7472.08
7324.84
7177.54
7030.24
6882.94
6735.63
6588.39
6441.15
6293.85
6146.55
5999.25
5851.96
5704.66
5557.36
5410.06
5262.81
5115.57
4968.27
4820.96
4673.66
4526.41
4379.16
4231.86
4084.56
3937.25
3789.94
3642.62
3495.29
3347.95
3200.58
3053.16
2905.7
2758.14
2610.44
2462.55
2314.36
2165.71
2016.41
1866.15
1714.49
1560.75
1404.06
1243.33
1077.37
907.968
743.759
548.709
118.397
-103.577
14612.7
14310.4
14323.2
14237.6
14101.6
14001.5
13904.3
13792.9
13675.2
13554.9
13430.9
13302.7
13170.8
13035.7
12897.8
12757.7
12615.7
12472.3
12327.8
12182.4
12036.4
11890
11743.2
11596.2
11449.1
11301.9
11154.6
11007.3
10860
10712.6
10565.3
10418
10270.6
10123.3
9976.08
9828.77
9681.45
9534.14
9386.84
9239.54
9092.23
8944.94
8797.64
8650.34
8503.04
8355.74
8208.47
8061.21
7913.94
7766.64
7619.34
7472.08
7324.84
7177.54
7030.24
6882.94
6735.64
6588.39
6441.14
6293.85
6146.55
5999.25
5851.96
5704.66
5557.36
5410.06
5262.81
5115.56
4968.27
4820.96
4673.66
4526.41
4379.16
4231.86
4084.55
3937.25
3789.94
3642.62
3495.29
3347.94
3200.57
3053.15
2905.68
2758.11
2610.41
2462.5
2314.28
2165.6
2016.24
1865.9
1714.11
1560.2
1403.24
1242.12
1075.58
905.475
740.706
544.101
108.96
-110.934
14612.7
14310.3
14323.2
14237.6
14101.6
14001.4
13904.2
13792.8
13675.2
13554.9
13430.9
13302.8
13170.8
13035.7
12897.8
12757.7
12615.7
12472.3
12327.8
12182.4
12036.4
11890
11743.2
11596.2
11449.1
11301.9
11154.6
11007.3
10860
10712.6
10565.3
10418
10270.6
10123.3
9976.07
9828.76
9681.45
9534.14
9386.84
9239.54
9092.23
8944.94
8797.64
8650.34
8503.04
8355.75
8208.47
8061.21
7913.93
7766.64
7619.34
7472.08
7324.83
7177.54
7030.24
6882.94
6735.65
6588.39
6441.13
6293.84
6146.55
5999.25
5851.96
5704.66
5557.37
5410.07
5262.81
5115.56
4968.27
4820.97
4673.67
4526.41
4379.15
4231.85
4084.55
3937.25
3789.94
3642.62
3495.29
3347.94
3200.57
3053.15
2905.68
2758.11
2610.41
2462.5
2314.28
2165.6
2016.24
1865.9
1714.11
1560.2
1403.24
1242.12
1075.58
905.475
740.706
544.1
108.96
-110.934
14607.2
14305.2
14318.3
14232.6
14096.6
13996.5
13899.4
13788.3
13671
13551.1
13427.6
13299.9
13168.3
13033.6
12896.1
12756.3
12614.6
12471.4
12327
12181.8
12036
11889.6
11742.9
11596
11448.9
11301.8
11154.5
11007.2
10859.9
10712.6
10565.3
10417.9
10270.6
10123.3
9976.06
9828.75
9681.44
9534.14
9386.84
9239.53
9092.23
8944.94
8797.64
8650.34
8503.05
8355.75
8208.47
8061.21
7913.93
7766.64
7619.35
7472.08
7324.82
7177.53
7030.24
6882.94
6735.65
6588.39
6441.13
6293.84
6146.55
5999.25
5851.96
5704.66
5557.37
5410.08
5262.81
5115.55
4968.26
4820.97
4673.67
4526.41
4379.14
4231.85
4084.55
3937.24
3789.93
3642.62
3495.29
3347.94
3200.57
3053.16
2905.69
2758.13
2610.44
2462.55
2314.35
2165.71
2016.41
1866.15
1714.49
1560.76
1404.06
1243.34
1077.37
907.969
743.759
548.709
118.397
-103.578
14596.1
14294.7
14308.3
14222.6
14086.5
13986.6
13889.9
13779.2
13662.6
13543.6
13420.9
13294
13163.3
13029.3
12892.5
12753.3
12612.2
12469.5
12325.5
12180.6
12035
11888.9
11742.4
11595.6
11448.6
11301.5
11154.3
11007.1
10859.8
10712.5
10565.2
10417.9
10270.6
10123.3
9976.04
9828.74
9681.44
9534.13
9386.83
9239.53
9092.23
8944.94
8797.64
8650.34
8503.05
8355.76
8208.48
8061.21
7913.93
7766.64
7619.35
7472.08
7324.82
7177.53
7030.24
6882.94
6735.66
6588.39
6441.12
6293.84
6146.54
5999.25
5851.96
5704.66
5557.37
5410.08
5262.81
5115.55
4968.26
4820.97
4673.68
4526.41
4379.14
4231.85
4084.55
3937.24
3789.94
3642.62
3495.29
3347.95
3200.58
3053.18
2905.72
2758.18
2610.51
2462.64
2314.5
2165.93
2016.74
1866.64
1715.22
1561.85
1405.68
1245.72
1080.9
912.87
749.777
557.715
137.437
-88.8356
14579.1
14279
14293.2
14207.5
14071.4
13971.8
13875.6
13765.7
13650.2
13532.4
13411
13285.4
13155.9
13023.1
12887.3
12749
12608.7
12466.7
12323.3
12178.9
12033.7
11887.8
11741.6
11595
11448.2
11301.2
11154.1
11006.9
10859.7
10712.4
10565.1
10417.9
10270.6
10123.3
9976.01
9828.72
9681.42
9534.12
9386.83
9239.53
9092.23
8944.93
8797.64
8650.34
8503.05
8355.76
8208.48
8061.21
7913.93
7766.64
7619.35
7472.08
7324.81
7177.53
7030.24
6882.95
6735.66
6588.39
6441.12
6293.83
6146.54
5999.25
5851.96
5704.67
5557.37
5410.09
5262.82
5115.55
4968.26
4820.97
4673.68
4526.41
4379.13
4231.85
4084.55
3937.25
3789.94
3642.62
3495.3
3347.96
3200.6
3053.21
2905.76
2758.24
2610.6
2462.79
2314.71
2166.25
2017.22
1867.36
1716.29
1563.43
1408.02
1249.18
1086
919.958
758.496
570.559
165.91
-66.8751
14556
14258.1
14273.1
14187.3
14051.5
13952.4
13856.9
13748.1
13634
13517.8
13398.1
13274.1
13146.2
13014.9
12880.5
12743.5
12604.2
12463
12320.4
12176.6
12031.9
11886.5
11740.5
11594.2
11447.5
11300.7
11153.7
11006.6
10859.5
10712.3
10565
10417.8
10270.5
10123.3
9975.98
9828.7
9681.41
9534.11
9386.82
9239.52
9092.23
8944.93
8797.64
8650.34
8503.05
8355.76
8208.48
8061.21
7913.93
7766.64
7619.36
7472.08
7324.81
7177.53
7030.24
6882.95
6735.66
6588.39
6441.12
6293.83
6146.54
5999.25
5851.96
5704.67
5557.38
5410.09
5262.82
5115.54
4968.26
4820.97
4673.68
4526.41
4379.13
4231.84
4084.55
3937.25
3789.94
3642.63
3495.31
3347.98
3200.62
3053.24
2905.81
2758.32
2610.72
2462.97
2314.98
2166.66
2017.84
1868.28
1717.66
1565.45
1410.99
1253.57
1092.45
928.909
769.511
586.524
203.201
-38.1421
14526.8
14232.2
14247.8
14162.3
14026.9
13928.6
13834.2
13726.8
13614.4
13500.2
13382.5
13260.6
13134.7
13005.1
12872.4
12736.8
12598.7
12458.6
12316.9
12173.8
12029.7
11884.8
11739.2
11593.2
11446.8
11300.1
11153.3
11006.3
10859.3
10712.1
10564.9
10417.7
10270.5
10123.2
9975.95
9828.67
9681.39
9534.1
9386.81
9239.52
9092.22
8944.93
8797.64
8650.34
8503.05
8355.76
8208.48
8061.2
7913.93
7766.64
7619.36
7472.08
7324.81
7177.53
7030.24
6882.95
6735.66
6588.39
6441.11
6293.83
6146.54
5999.25
5851.96
5704.67
5557.38
5410.09
5262.82
5115.54
4968.26
4820.97
4673.68
4526.41
4379.13
4231.84
4084.55
3937.25
3789.95
3642.64
3495.32
3347.99
3200.65
3053.28
2905.87
2758.41
2610.86
2463.18
2315.31
2167.15
2018.56
1869.36
1719.26
1567.83
1414.5
1258.71
1099.98
939.31
782.28
604.854
248.12
-3.42409
14491.5
14201.3
14217.7
14132.5
13998.2
13901
13807.9
13702.3
13592.1
13480.1
13364.8
13245.2
13121.4
12994
12863.1
12729.1
12592.5
12453.6
12312.9
12170.7
12027.2
11882.8
11737.7
11592
11445.9
11299.5
11152.8
11006
10859
10711.9
10564.8
10417.6
10270.4
10123.1
9975.91
9828.64
9681.37
9534.09
9386.8
9239.51
9092.22
8944.93
8797.63
8650.34
8503.05
8355.76
8208.48
8061.2
7913.92
7766.64
7619.36
7472.08
7324.81
7177.52
7030.24
6882.95
6735.66
6588.39
6441.11
6293.83
6146.54
5999.25
5851.96
5704.67
5557.38
5410.09
5262.82
5115.54
4968.26
4820.97
4673.69
4526.41
4379.13
4231.84
4084.55
3937.25
3789.95
3642.65
3495.33
3348.01
3200.68
3053.32
2905.94
2758.51
2611.02
2463.42
2315.67
2167.69
2019.37
1870.57
1721.06
1570.48
1418.38
1264.4
1108.26
950.685
796.164
624.663
298.96
36.1199
14450.3
14166.1
14183.2
14098.7
13965.9
13870.2
13778.6
13675.2
13567.5
13458.1
13345.4
13228.3
13107
12981.8
12852.9
12720.7
12585.6
12448.1
12308.5
12167.2
12024.5
11880.7
11736.1
11590.8
11445
11298.8
11152.3
11005.6
10858.7
10711.7
10564.6
10417.5
10270.3
10123.1
9975.86
9828.61
9681.34
9534.07
9386.79
9239.5
9092.21
8944.92
8797.63
8650.34
8503.05
8355.77
8208.48
8061.2
7913.92
7766.64
7619.36
7472.08
7324.81
7177.52
7030.24
6882.95
6735.67
6588.39
6441.11
6293.83
6146.54
5999.25
5851.96
5704.67
5557.38
5410.1
5262.82
5115.54
4968.26
4820.97
4673.69
4526.41
4379.13
4231.84
4084.55
3937.25
3789.96
3642.65
3495.35
3348.03
3200.71
3053.37
2906.01
2758.62
2611.18
2463.67
2316.05
2168.26
2020.23
1871.85
1722.96
1573.29
1422.5
1270.41
1116.95
962.535
810.496
644.935
353.662
79.0455
14403.7
14127.2
14144.8
14061.4
13930.9
13837
13747.4
13646.4
13541.5
13434.9
13325
13210.6
13091.9
12969
12842.2
12711.9
12578.4
12442.3
12303.8
12163.5
12021.6
11878.4
11734.3
11589.4
11443.9
11298
11151.7
11005.1
10858.4
10711.5
10564.4
10417.3
10270.2
10123
9975.81
9828.57
9681.32
9534.05
9386.78
9239.49
9092.21
8944.92
8797.63
8650.34
8503.05
8355.77
8208.48
8061.2
7913.92
7766.64
7619.36
7472.08
7324.8
7177.52
7030.24
6882.95
6735.67
6588.39
6441.11
6293.82
6146.54
5999.25
5851.96
5704.67
5557.38
5410.1
5262.82
5115.54
4968.26
4820.97
4673.69
4526.41
4379.13
4231.84
4084.55
3937.26
3789.96
3642.66
3495.36
3348.05
3200.74
3053.42
2906.09
2758.74
2611.35
2463.93
2316.44
2168.85
2021.11
1873.16
1724.9
1576.14
1426.67
1276.46
1125.65
974.306
824.573
664.677
410.138
123.766
14352.8
14085.8
14103.5
14021.7
13894.5
13802.8
13715.3
13617.2
13515.1
13411.5
13304.4
13192.7
13076.5
12956
12831.3
12702.9
12571.1
12436.3
12299
12159.7
12018.6
11876.1
11732.5
11588
11442.9
11297.2
11151.1
11004.7
10858
10711.2
10564.3
10417.2
10270.1
10123
9975.76
9828.54
9681.29
9534.03
9386.76
9239.48
9092.2
8944.92
8797.63
8650.34
8503.05
8355.77
8208.48
8061.2
7913.92
7766.64
7619.36
7472.08
7324.8
7177.52
7030.24
6882.95
6735.67
6588.39
6441.11
6293.82
6146.54
5999.25
5851.96
5704.67
5557.38
5410.1
5262.82
5115.54
4968.26
4820.97
4673.69
4526.41
4379.13
4231.84
4084.55
3937.26
3789.97
3642.67
3495.37
3348.08
3200.77
3053.47
2906.16
2758.85
2611.52
2464.19
2316.82
2169.43
2021.97
1874.44
1726.8
1578.93
1430.73
1282.35
1134.04
985.585
837.932
683.33
466.873
168.923
14298.9
14043.5
14060.8
13981.1
13858
13768.6
13683.5
13588.2
13489.2
13388.5
13284.1
13175.1
13061.4
12943.2
12820.6
12694
12563.8
12430.4
12294.3
12155.9
12015.6
11873.7
11730.7
11586.6
11441.8
11296.4
11150.5
11004.2
10857.7
10711
10564.1
10417.1
10270
10122.9
9975.71
9828.5
9681.27
9534.01
9386.75
9239.48
9092.2
8944.91
8797.63
8650.34
8503.05
8355.77
8208.48
8061.2
7913.92
7766.64
7619.36
7472.08
7324.8
7177.52
7030.24
6882.95
6735.67
6588.39
6441.11
6293.82
6146.54
5999.25
5851.96
5704.67
5557.38
5410.1
5262.82
5115.54
4968.26
4820.97
4673.69
4526.41
4379.13
4231.84
4084.55
3937.26
3789.97
3642.68
3495.39
3348.1
3200.8
3053.52
2906.23
2758.95
2611.68
2464.43
2317.19
2169.97
2022.79
1875.66
1728.59
1581.57
1434.56
1287.87
1141.87
996.047
850.336
701.165
524.554
214.911
14244
14001.9
14018.2
13941
13822.7
13735.7
13652.9
13560.7
13464.6
13366.6
13264.9
13158.4
13047.1
12931
12810.4
12685.5
12556.8
12424.7
12289.7
12152.2
12012.7
11871.5
11728.9
11585.3
11440.8
11295.6
11149.9
11003.8
10857.3
10710.7
10563.9
10416.9
10269.9
10122.8
9975.66
9828.46
9681.24
9534
9386.74
9239.47
9092.19
8944.91
8797.62
8650.34
8503.05
8355.77
8208.48
8061.2
7913.92
7766.64
7619.36
7472.08
7324.8
7177.52
7030.24
6882.95
6735.67
6588.39
6441.11
6293.82
6146.54
5999.25
5851.96
5704.67
5557.38
5410.1
5262.82
5115.54
4968.26
4820.97
4673.69
4526.41
4379.13
4231.84
4084.56
3937.27
3789.98
3642.69
3495.4
3348.11
3200.83
3053.56
2906.3
2759.05
2611.83
2464.65
2317.52
2170.47
2023.53
1876.76
1730.22
1583.94
1438.02
1292.84
1148.87
1005.37
861.531
718.603
585.744
264.112
14190.7
13963.3
13977.7
13903.3
13790.3
13705.5
13624.9
13535.5
13442.2
13346.7
13247.4
13143.2
13034
12919.8
12800.9
12677.6
12550.3
12419.4
12285.4
12148.8
12010
11869.3
11727.3
11584
11439.8
11294.8
11149.3
11003.3
10857
10710.5
10563.7
10416.8
10269.8
10122.7
9975.61
9828.43
9681.21
9533.98
9386.72
9239.46
9092.18
8944.9
8797.62
8650.34
8503.05
8355.77
8208.48
8061.2
7913.92
7766.64
7619.36
7472.08
7324.8
7177.52
7030.23
6882.95
6735.67
6588.39
6441.1
6293.82
6146.54
5999.25
5851.96
5704.67
5557.38
5410.1
5262.82
5115.54
4968.26
4820.97
4673.69
4526.41
4379.13
4231.84
4084.56
3937.27
3789.98
3642.69
3495.41
3348.13
3200.86
3053.59
2906.35
2759.13
2611.96
2464.84
2317.81
2170.9
2024.18
1877.72
1731.63
1586
1441.02
1297.15
1154.91
1013.42
871.464
735.907
649.75
316.195
14141.6
13929.9
13941.5
13869.9
13762.1
13679.3
13600.6
13513.8
13422.9
13329.5
13232.2
13130
13022.6
12910.1
12792.7
12670.8
12544.6
12414.7
12281.6
12145.8
12007.6
11867.5
11725.8
11582.8
11438.9
11294.1
11148.8
11003
10856.7
10710.3
10563.6
10416.7
10269.7
10122.7
9975.56
9828.4
9681.19
9533.96
9386.71
9239.45
9092.18
8944.9
8797.62
8650.33
8503.05
8355.77
8208.48
8061.2
7913.92
7766.64
7619.36
7472.08
7324.8
7177.52
7030.23
6882.95
6735.67
6588.39
6441.1
6293.82
6146.53
5999.25
5851.96
5704.67
5557.39
5410.1
5262.82
5115.54
4968.26
4820.97
4673.69
4526.41
4379.13
4231.84
4084.56
3937.27
3789.98
3642.7
3495.42
3348.14
3200.88
3053.63
2906.4
2759.2
2612.06
2465
2318.05
2171.26
2024.71
1878.51
1732.79
1587.71
1443.49
1300.71
1159.88
1020.04
880.01
752.507
710.765
366.056
14099.9
13903.9
13911.5
13842.5
13739.8
13658.6
13581.3
13496.6
13407.7
13316
13220.3
13119.6
13013.6
12902.4
12786.2
12665.3
12540
12411
12278.6
12143.3
12005.6
11865.9
11724.6
11581.9
11438.2
11293.6
11148.4
11002.6
10856.5
10710.1
10563.4
10416.6
10269.7
10122.6
9975.53
9828.37
9681.17
9533.95
9386.7
9239.44
9092.17
8944.9
8797.62
8650.33
8503.05
8355.77
8208.48
8061.2
7913.92
7766.64
7619.36
7472.08
7324.8
7177.52
7030.23
6882.95
6735.67
6588.39
6441.1
6293.82
6146.53
5999.25
5851.96
5704.67
5557.39
5410.1
5262.82
5115.54
4968.26
4820.97
4673.69
4526.41
4379.13
4231.84
4084.56
3937.27
3789.99
3642.7
3495.42
3348.15
3200.89
3053.65
2906.43
2759.26
2612.14
2465.12
2318.23
2171.54
2025.13
1879.12
1733.69
1589.02
1445.4
1303.45
1163.67
1025.12
886.994
767.271
761.072
406.49
14068.3
13887
13889.6
13822.7
13724.4
13644.3
13567.9
13484.8
13397.3
13306.7
13212
13112.3
13007.2
12896.9
12781.5
12661.3
12536.8
12408.3
12276.3
12141.5
12004.1
11864.7
11723.7
11581.2
11437.6
11293.2
11148.1
11002.4
10856.3
10709.9
10563.3
10416.5
10269.6
10122.6
9975.5
9828.35
9681.16
9533.94
9386.69
9239.44
9092.17
8944.89
8797.61
8650.33
8503.05
8355.77
8208.48
8061.2
7913.92
7766.64
7619.36
7472.08
7324.8
7177.52
7030.23
6882.95
6735.67
6588.39
6441.1
6293.82
6146.53
5999.25
5851.96
5704.67
5557.39
5410.1
5262.82
5115.54
4968.26
4820.97
4673.69
4526.41
4379.13
4231.84
4084.56
3937.27
3789.99
3642.71
3495.43
3348.16
3200.9
3053.67
2906.46
2759.3
2612.2
2465.21
2318.36
2171.73
2025.42
1879.55
1734.32
1589.94
1446.74
1305.35
1166.3
1028.66
892.342
779.252
794.598
431.767
14048.4
13880.1
13876.6
13811.2
13716.4
13636.8
13560.7
13478.4
13391.6
13301.6
13207.5
13108.2
13003.7
12893.8
12778.8
12659
12534.8
12406.6
12275
12140.4
12003.3
11864
11723.1
11580.7
11437.3
11292.9
11147.9
11002.2
10856.2
10709.9
10563.3
10416.5
10269.6
10122.6
9975.48
9828.34
9681.15
9533.93
9386.69
9239.43
9092.17
8944.89
8797.61
8650.33
8503.05
8355.76
8208.48
8061.2
7913.92
7766.64
7619.36
7472.08
7324.8
7177.52
7030.23
6882.95
6735.67
6588.39
6441.1
6293.82
6146.53
5999.25
5851.96
5704.67
5557.39
5410.1
5262.82
5115.54
4968.26
4820.97
4673.69
4526.41
4379.13
4231.84
4084.56
3937.27
3789.99
3642.71
3495.43
3348.16
3200.91
3053.68
2906.47
2759.32
2612.24
2465.26
2318.44
2171.85
2025.58
1879.8
1734.68
1590.47
1447.51
1306.45
1167.78
1030.7
896.023
787.925
809.033
439.772
14040.9
13882.2
13872.4