/*--------------------------------*- C++ -*----------------------------------*\
| =========                 |                                                 |
| \\      /  F ield         | foam-extend: Open Source CFD                    |
|  \\    /   O peration     | Version:     5.0                                |
|   \\  /    A nd           | Web:         http://www.foam-extend.org         |
|    \\/     M anipulation  |                                                 |
\*---------------------------------------------------------------------------*/
FoamFile
{
    version     2.0;
    format      ascii;
    class       volScalarField;
    location    "0.035";
    object      pd;
}
// * * * * * * * * * * * * * * * * * * * * * * * * * * * * * * * * * * * * * //

dimensions      [1 -1 -2 0 0 0 0];

internalField   nonuniform List<scalar> 
4000
(
14057.3
13903.4
13883.7
13819.9
13729.3
13648.7
13571.5
13488.4
13399.5
13307.4
13210.5
13109.3
13005.2
12895.7
12780.5
12660.4
12536.1
12408.1
12276
12141
12003.9
11864.6
11723.7
11581.2
11437.6
11293.3
11148.3
11002.7
10856.7
10710.3
10563.7
10416.9
10270
10123
9976.01
9828.87
9681.67
9534.44
9387.19
9239.92
9092.65
8945.37
8798.08
8650.79
8503.49
8356.19
8208.93
8061.7
7914.43
7767.11
7619.81
7472.58
7325.35
7178.05
7030.73
6883.42
6736.12
6588.89
6441.66
6294.36
6147.06
5999.75
5852.45
5705.14
5557.83
5410.53
5263.3
5116.07
4968.77
4821.45
4674.15
4526.92
4379.69
4232.4
4085.1
3937.8
3790.51
3643.22
3495.94
3348.67
3201.42
3054.18
2906.97
2759.81
2612.72
2465.72
2318.87
2172.22
2025.88
1879.99
1734.7
1590.29
1447.12
1305.69
1166.44
1029.16
897.99
800.459
796.295
416.484
14046.1
13892.7
13877
13812.8
13722
13642.3
13565.9
13483.2
13394.9
13303.4
13206.9
13106.1
13002.4
12893.3
12778.4
12658.7
12534.7
12406.9
12275
12140.2
12003.3
11864.1
11723.3
11580.9
11437.4
11293.1
11148.1
11002.6
10856.6
10710.3
10563.7
10416.9
10270
10123
9976
9828.86
9681.66
9534.43
9387.18
9239.92
9092.65
8945.37
8798.08
8650.79
8503.49
8356.19
8208.93
8061.7
7914.43
7767.11
7619.81
7472.58
7325.35
7178.05
7030.73
6883.42
6736.12
6588.89
6441.66
6294.36
6147.05
5999.75
5852.45
5705.14
5557.83
5410.53
5263.3
5116.07
4968.77
4821.45
4674.15
4526.92
4379.69
4232.4
4085.1
3937.81
3790.51
3643.22
3495.94
3348.68
3201.42
3054.19
2906.99
2759.83
2612.75
2465.77
2318.94
2172.33
2026.05
1880.24
1735.06
1590.83
1447.87
1306.76
1167.92
1030.99
898.907
797.542
799.522
422.472
14042.6
13883.9
13874.2
13809.7
13717.5
13638.5
13562.8
13480.5
13392.3
13301.2
13204.9
13104.3
13001
12892.1
12777.5
12657.9
12534.1
12406.4
12274.6
12139.9
12003
11863.9
11723.1
11580.8
11437.3
11293.1
11148.1
11002.6
10856.6
10710.2
10563.7
10416.9
10270
10123
9976
9828.86
9681.66
9534.43
9387.18
9239.92
9092.65
8945.37
8798.08
8650.79
8503.49
8356.19
8208.93
8061.7
7914.43
7767.11
7619.81
7472.58
7325.35
7178.05
7030.73
6883.42
6736.11
6588.89
6441.66
6294.36
6147.05
5999.75
5852.45
5705.14
5557.83
5410.52
5263.3
5116.08
4968.77
4821.45
4674.15
4526.92
4379.7
4232.4
4085.1
3937.81
3790.51
3643.23
3495.95
3348.68
3201.42
3054.19
2906.99
2759.84
2612.77
2465.79
2318.98
2172.38
2026.13
1880.34
1735.22
1591.06
1448.2
1307.22
1168.61
1031.76
898.496
793.959
808.08
434.234
14050
13881.7
13878.4
13813.1
13718.5
13639.6
13564.3
13481.9
13393.5
13302.2
13205.8
13105.1
13001.8
12892.9
12778.2
12658.6
12534.6
12406.9
12275.1
12140.2
12003.3
11864.1
11723.4
11581
11437.4
11293.2
11148.1
11002.6
10856.6
10710.3
10563.7
10416.9
10270
10123
9976.02
9828.86
9681.66
9534.43
9387.19
9239.92
9092.65
8945.37
8798.08
8650.79
8503.49
8356.19
8208.93
8061.7
7914.43
7767.11
7619.8
7472.58
7325.36
7178.05
7030.73
6883.42
6736.11
6588.89
6441.67
6294.36
6147.05
5999.75
5852.45
5705.14
5557.83
5410.52
5263.3
5116.09
4968.77
4821.45
4674.14
4526.92
4379.7
4232.4
4085.1
3937.8
3790.51
3643.22
3495.94
3348.68
3201.42
3054.19
2906.99
2759.83
2612.76
2465.78
2318.96
2172.35
2026.08
1880.28
1735.13
1590.92
1447.99
1306.93
1168.26
1031.19
896.511
788.414
809.527
440.265
14069.9
13888.7
13891.3
13824.6
13726.5
13647
13571.6
13488.5
13399.2
13307
13210
13109.1
13005.5
12896.1
12780.9
12660.9
12536.6
12408.5
12276.4
12141.4
12004.2
11864.8
11723.9
11581.4
11437.8
11293.4
11148.3
11002.8
10856.8
10710.4
10563.7
10416.9
10270
10123
9976.05
9828.88
9681.67
9534.44
9387.19
9239.93
9092.65
8945.37
8798.08
8650.79
8503.49
8356.19
8208.92
8061.7
7914.44
7767.11
7619.79
7472.58
7325.37
7178.05
7030.73
6883.42
6736.1
6588.89
6441.68
6294.36
6147.05
5999.75
5852.45
5705.14
5557.83
5410.51
5263.3
5116.1
4968.77
4821.45
4674.13
4526.92
4379.71
4232.4
4085.1
3937.8
3790.51
3643.22
3495.94
3348.67
3201.42
3054.18
2906.97
2759.81
2612.72
2465.73
2318.88
2172.24
2025.9
1880.03
1734.77
1590.39
1447.21
1305.83
1166.78
1029.15
892.829
779.742
795.091
432.26
14101.5
13905.5
13913.2
13844.4
13741.9
13661.2
13584.9
13500.6
13409.7
13315.8
13218
13116.6
13012
12901.6
12785.6
12664.9
12539.9
12411.2
12278.6
12143.3
12005.7
11866
11724.9
11582.1
11438.3
11293.8
11148.7
11003
10857
10710.5
10563.8
10417
10270
10123.1
9976.09
9828.9
9681.69
9534.45
9387.2
9239.93
9092.66
8945.37
8798.08
8650.79
8503.49
8356.18
8208.92
8061.71
7914.45
7767.12
7619.77
7472.58
7325.39
7178.05
7030.73
6883.42
6736.08
6588.89
6441.69
6294.36
6147.05
5999.75
5852.45
5705.14
5557.83
5410.49
5263.3
5116.11
4968.78
4821.45
4674.12
4526.92
4379.72
4232.4
4085.1
3937.8
3790.51
3643.22
3495.94
3348.66
3201.4
3054.16
2906.95
2759.77
2612.67
2465.64
2318.75
2172.04
2025.61
1879.6
1734.15
1589.48
1445.88
1303.93
1164.16
1025.61
887.481
767.761
761.565
406.983
14143.2
13931.4
13943.2
13871.7
13764.1
13681.8
13604.1
13517.6
13424.5
13329
13230
13127.4
13021.3
12909.4
12792.3
12670.5
12544.5
12414.9
12281.7
12145.9
12007.7
11867.5
11726.1
11583.1
11439
11294.4
11149.1
11003.3
10857.2
10710.7
10564
10417.1
10270.1
10123.1
9976.14
9828.93
9681.7
9534.47
9387.21
9239.94
9092.66
8945.38
8798.09
8650.79
8503.49
8356.18
8208.91
8061.72
7914.46
7767.12
7619.76
7472.58
7325.4
7178.05
7030.74
6883.42
6736.06
6588.89
6441.71
6294.36
6147.05
5999.75
5852.45
5705.14
5557.83
5410.47
5263.3
5116.13
4968.78
4821.45
4674.1
4526.92
4379.74
4232.4
4085.1
3937.8
3790.5
3643.21
3495.93
3348.65
3201.39
3054.14
2906.91
2759.72
2612.58
2465.51
2318.56
2171.76
2025.19
1878.98
1733.25
1588.17
1443.97
1301.19
1160.36
1020.52
880.498
752.997
711.258
366.549
14192.2
13964.8
13979.4
13905.1
13792.2
13707.9
13628.2
13539
13443.6
13346.1
13245.4
13141
13032.9
12919.2
12800.5
12677.4
12550.2
12419.5
12285.5
12149
12010.1
11869.4
11727.6
11584.2
11440
11295.1
11149.6
11003.7
10857.5
10710.9
10564.1
10417.2
10270.1
10123.2
9976.21
9828.97
9681.73
9534.48
9387.22
9239.95
9092.67
8945.38
8798.09
8650.79
8503.49
8356.17
8208.9
8061.73
7914.47
7767.12
7619.73
7472.58
7325.43
7178.05
7030.74
6883.42
6736.04
6588.89
6441.73
6294.36
6147.05
5999.76
5852.45
5705.14
5557.83
5410.45
5263.3
5116.15
4968.78
4821.45
4674.08
4526.92
4379.76
4232.4
4085.1
3937.8
3790.5
3643.21
3495.92
3348.64
3201.37
3054.11
2906.86
2759.65
2612.48
2465.35
2318.31
2171.4
2024.66
1878.19
1732.09
1586.47
1441.49
1297.64
1155.4
1013.9
871.952
736.397
650.244
316.688
14245.5
14003.4
14019.8
13942.7
13824.6
13737.9
13655.9
13563.6
13465.7
13366
13263.2
13156.7
13046.2
12930.5
12810.1
12685.3
12556.7
12424.8
12289.8
12152.4
12012.9
11871.6
11729.2
11585.5
11441
11295.9
11150.2
11004.2
10857.8
10711.1
10564.3
10417.4
10270.2
10123.3
9976.29
9829.01
9681.75
9534.5
9387.23
9239.95
9092.67
8945.38
8798.09
8650.8
8503.48
8356.16
8208.89
8061.74
7914.49
7767.12
7619.7
7472.58
7325.46
7178.05
7030.73
6883.42
6736.01
6588.88
6441.76
6294.36
6147.05
5999.76
5852.45
5705.14
5557.83
5410.42
5263.3
5116.18
4968.78
4821.45
4674.05
4526.92
4379.78
4232.4
4085.1
3937.79
3790.49
3643.2
3495.91
3348.62
3201.34
3054.07
2906.81
2759.56
2612.35
2465.16
2318.02
2170.96
2024.01
1877.23
1730.68
1584.41
1438.5
1293.33
1149.36
1005.86
862.02
719.093
586.237
264.605
14300.3
14044.9
14062.3
13982.6
13859.7
13770.6
13686.1
13590.7
13490.2
13388
13282.7
13173.7
13060.8
12942.9
12820.4
12693.9
12563.8
12430.5
12294.4
12156.1
12015.8
11873.9
11731
11586.9
11442.1
11296.7
11150.7
11004.6
10858.2
10711.4
10564.5
10417.5
10270.3
10123.3
9976.39
9829.05
9681.78
9534.52
9387.24
9239.96
9092.68
8945.39
8798.1
8650.8
8503.48
8356.15
8208.88
8061.75
7914.51
7767.12
7619.66
7472.58
7325.5
7178.06
7030.73
6883.41
6735.97
6588.88
6441.8
6294.35
6147.05
5999.76
5852.45
5705.14
5557.83
5410.38
5263.3
5116.22
4968.78
4821.45
4674.01
4526.91
4379.82
4232.4
4085.1
3937.79
3790.49
3643.19
3495.89
3348.6
3201.31
3054.02
2906.74
2759.46
2612.2
2464.93
2317.69
2170.47
2023.27
1876.14
1729.07
1582.04
1435.04
1288.36
1142.36
996.535
850.825
701.655
525.046
215.403
14354.1
14087.2
14105
14023.1
13896.1
13804.7
13717.7
13619.3
13516
13411.1
13303.2
13191.6
13076
12955.8
12831.2
12702.8
12571.1
12436.5
12299.2
12159.9
12018.8
11876.3
11732.8
11588.3
11443.2
11297.5
11151.4
11005.1
10858.6
10711.7
10564.7
10417.6
10270.3
10123.4
9976.47
9829.09
9681.81
9534.54
9387.26
9239.97
9092.69
8945.39
8798.1
8650.8
8503.48
8356.13
8208.86
8061.77
7914.52
7767.12
7619.63
7472.58
7325.53
7178.06
7030.73
6883.41
6735.94
6588.88
6441.84
6294.35
6147.05
5999.76
5852.45
5705.14
5557.82
5410.35
5263.29
5116.26
4968.78
4821.45
4673.97
4526.91
4379.85
4232.4
4085.1
3937.78
3790.48
3643.18
3495.88
3348.58
3201.28
3053.98
2906.67
2759.36
2612.03
2464.69
2317.32
2169.92
2022.46
1874.92
1727.27
1579.41
1431.22
1282.83
1134.53
986.072
838.42
683.82
467.365
169.416
14404.9
14128.5
14146.1
14062.6
13932.4
13838.8
13749.4
13648.3
13542.2
13434.7
13324.1
13209.8
13091.5
12968.8
12842.1
12711.9
12578.5
12442.5
12304
12163.7
12021.8
11878.7
11734.7
11589.7
11444.3
11298.3
11152
11005.6
10858.9
10711.9
10564.9
10417.8
10270.5
10123.5
9976.49
9829.12
9681.83
9534.55
9387.27
9239.98
9092.69
8945.4
8798.1
8650.8
8503.49
8356.15
8208.88
8061.75
7914.51
7767.12
7619.67
7472.58
7325.49
7178.05
7030.73
6883.41
6735.97
6588.88
6441.8
6294.35
6147.05
5999.76
5852.45
5705.14
5557.83
5410.38
5263.3
5116.22
4968.78
4821.45
4674.01
4526.91
4379.81
4232.39
4085.09
3937.78
3790.47
3643.17
3495.87
3348.56
3201.25
3053.93
2906.59
2759.24
2611.86
2464.43
2316.94
2169.34
2021.59
1873.64
1725.38
1576.62
1427.15
1276.95
1126.14
974.794
825.063
665.167
410.63
124.258
14451.4
14167.3
14184.4
14099.9
13967.3
13871.8
13780.4
13676.8
13568.1
13457.9
13344.7
13227.7
13106.8
12981.7
12852.9
12720.8
12585.8
12448.3
12308.7
12167.4
12024.8
11881
11736.4
11591.1
11445.3
11299.1
11152.6
11006
10859.2
10712.1
10565.1
10417.9
10270.6
10123.5
9976.5
9829.15
9681.85
9534.57
9387.28
9239.99
9092.7
8945.4
8798.11
8650.81
8503.49
8356.17
8208.9
8061.74
7914.49
7767.12
7619.71
7472.58
7325.45
7178.05
7030.73
6883.42
6736.01
6588.88
6441.76
6294.35
6147.05
5999.76
5852.45
5705.14
5557.83
5410.43
5263.3
5116.18
4968.78
4821.45
4674.05
4526.91
4379.77
4232.39
4085.08
3937.77
3790.47
3643.16
3495.85
3348.54
3201.21
3053.88
2906.52
2759.13
2611.69
2464.17
2316.55
2168.75
2020.72
1872.33
1723.44
1573.77
1422.98
1270.89
1117.44
963.023
810.986
645.425
354.154
79.5377
14492.5
14202.4
14218.9
14133.6
13999.4
13902.4
13809.4
13703.6
13592.7
13480
13364.3
13244.7
13121.3
12994
12863.2
12729.2
12592.7
12453.9
12313.1
12170.9
12027.6
11883.2
11738.1
11592.4
11446.3
11299.9
11153.2
11006.4
10859.5
10712.4
10565.2
10418
10270.7
10123.6
9976.51
9829.18
9681.87
9534.59
9387.29
9240
9092.7
8945.41
8798.11
8650.81
8503.5
8356.18
8208.91
8061.73
7914.47
7767.12
7619.74
7472.58
7325.42
7178.05
7030.73
6883.42
6736.04
6588.88
6441.73
6294.35
6147.05
5999.75
5852.45
5705.14
5557.83
5410.46
5263.3
5116.15
4968.78
4821.45
4674.07
4526.91
4379.74
4232.38
4085.07
3937.76
3790.46
3643.15
3495.84
3348.51
3201.18
3053.83
2906.44
2759.01
2611.52
2463.92
2316.16
2168.18
2019.85
1871.05
1721.54
1570.96
1418.87
1264.89
1108.75
951.174
796.653
625.153
299.453
36.612
14527.8
14233.2
14248.9
14163.3
14028
13929.9
13835.5
13728
13615
13500.2
13382.2
13260.3
13134.6
13005.2
12872.5
12736.9
12599
12458.9
12317.2
12174.1
12030.1
11885.1
11739.6
11593.5
11447.2
11300.5
11153.7
11006.8
10859.8
10712.6
10565.4
10418.1
10270.8
10123.7
9976.53
9829.2
9681.89
9534.6
9387.3
9240.01
9092.71
8945.41
8798.11
8650.82
8503.51
8356.2
8208.93
8061.72
7914.46
7767.12
7619.76
7472.58
7325.4
7178.05
7030.73
6883.42
6736.07
6588.88
6441.7
6294.35
6147.04
5999.75
5852.45
5705.15
5557.84
5410.48
5263.3
5116.12
4968.77
4821.45
4674.1
4526.91
4379.72
4232.38
4085.07
3937.76
3790.45
3643.14
3495.82
3348.49
3201.15
3053.78
2906.37
2758.91
2611.36
2463.68
2315.8
2167.64
2019.05
1869.84
1719.75
1568.32
1414.98
1259.2
1100.47
939.799
782.769
605.344
248.612
-2.93221
14556.9
14259.1
14274
14188.3
14052.5
13953.5
13858.1
13749.2
13634.6
13517.9
13397.9
13274
13146.3
13015.1
12880.7
12743.7
12604.5
12463.4
12320.7
12176.9
12032.2
11886.8
11740.9
11594.6
11447.9
11301.1
11154.1
11007.1
10860
10712.8
10565.5
10418.2
10270.9
10123.7
9976.54
9829.22
9681.91
9534.61
9387.31
9240.01
9092.71
8945.42
8798.12
8650.82
8503.51
8356.21
8208.93
8061.72
7914.45
7767.12
7619.78
7472.58
7325.38
7178.04
7030.73
6883.42
6736.09
6588.88
6441.68
6294.35
6147.04
5999.75
5852.45
5705.15
5557.84
5410.5
5263.3
5116.1
4968.77
4821.45
4674.11
4526.91
4379.7
4232.37
4085.06
3937.75
3790.44
3643.13
3495.81
3348.47
3201.12
3053.74
2906.31
2758.81
2611.22
2463.46
2315.48
2167.15
2018.32
1868.76
1718.14
1565.94
1411.48
1254.06
1092.94
929.399
770.001
587.015
203.692
-37.6504
14579.9
14279.9
14294.1
14208.3
14072.3
13972.8
13876.6
13766.6
13650.7
13532.6
13411
13285.4
13156.1
13023.3
12887.6
12749.3
12609
12467
12323.7
12179.2
12034.1
11888.3
11742
11595.4
11448.6
11301.6
11154.5
11007.4
10860.2
10712.9
10565.6
10418.3
10271
10123.8
9976.55
9829.24
9681.92
9534.62
9387.32
9240.02
9092.72
8945.42
8798.12
8650.82
8503.52
8356.22
8208.94
8061.71
7914.44
7767.12
7619.8
7472.57
7325.36
7178.04
7030.73
6883.42
6736.1
6588.88
6441.67
6294.34
6147.04
5999.75
5852.45
5705.15
5557.84
5410.52
5263.3
5116.09
4968.77
4821.45
4674.13
4526.9
4379.68
4232.36
4085.06
3937.75
3790.44
3643.12
3495.8
3348.46
3201.1
3053.7
2906.26
2758.73
2611.1
2463.28
2315.21
2166.74
2017.71
1867.85
1716.78
1563.92
1408.5
1249.67
1086.49
920.448
758.986
571.05
166.402
-66.3837
14596.8
14295.5
14309.1
14223.4
14087.3
13987.5
13890.7
13780
13663.1
13543.9
13421.1
13294.2
13163.6
13029.6
12892.9
12753.7
12612.6
12469.9
12325.9
12181
12035.5
11889.3
11742.8
11596
11449.1
11302
11154.8
11007.6
10860.3
10713
10565.7
10418.4
10271.1
10123.8
9976.56
9829.25
9681.93
9534.63
9387.32
9240.02
9092.72
8945.42
8798.12
8650.82
8503.52
8356.22
8208.95
8061.71
7914.44
7767.12
7619.81
7472.57
7325.35
7178.04
7030.73
6883.43
6736.12
6588.88
6441.65
6294.34
6147.04
5999.75
5852.45
5705.15
5557.85
5410.54
5263.3
5116.07
4968.76
4821.45
4674.14
4526.9
4379.67
4232.36
4085.05
3937.74
3790.43
3643.12
3495.79
3348.45
3201.08
3053.67
2906.22
2758.67
2611
2463.14
2314.99
2166.42
2017.23
1867.13
1715.71
1562.33
1406.16
1246.21
1081.39
913.36
750.267
558.205
137.928
-88.3444
14607.9
14305.8
14318.9
14233.3
14097.3
13997.2
13900.1
13788.9
13671.5
13551.5
13427.9
13300.2
13168.7
13034
12896.5
12756.7
12615
12471.8
12327.5
12182.3
12036.4
11890.1
11743.4
11596.5
11449.4
11302.2
11155
11007.7
10860.4
10713.1
10565.8
10418.4
10271.1
10123.8
9976.57
9829.25
9681.94
9534.63
9387.33
9240.02
9092.72
8945.42
8798.13
8650.83
8503.53
8356.23
8208.95
8061.7
7914.43
7767.13
7619.82
7472.57
7325.33
7178.03
7030.73
6883.43
6736.13
6588.88
6441.64
6294.34
6147.04
5999.74
5852.45
5705.15
5557.85
5410.55
5263.3
5116.06
4968.76
4821.45
4674.15
4526.9
4379.66
4232.35
4085.05
3937.74
3790.43
3643.11
3495.78
3348.44
3201.07
3053.66
2906.19
2758.63
2610.94
2463.04
2314.85
2166.2
2016.9
1866.64
1714.98
1561.25
1404.55
1243.83
1077.86
908.459
744.249
549.2
118.888
-103.087
14613.2
14310.9
14323.7
14238.1
14102.1
14002
13904.8
13793.4
13675.7
13555.3
13431.4
13303.2
13171.3
13036.2
12898.3
12758.2
12616.2
12472.8
12328.3
12182.9
12036.9
11890.5
11743.7
11596.7
11449.6
11302.4
11155.1
11007.8
10860.5
10713.1
10565.8
10418.4
10271.1
10123.8
9976.57
9829.26
9681.94
9534.63
9387.33
9240.03
9092.73
8945.43
8798.13
8650.83
8503.53
8356.24
8208.96
8061.7
7914.43
7767.13
7619.83
7472.57
7325.33
7178.03
7030.73
6883.43
6736.13
6588.88
6441.63
6294.34
6147.04
5999.74
5852.45
5705.15
5557.85
5410.55
5263.3
5116.06
4968.76
4821.46
4674.16
4526.9
4379.65
4232.35
4085.05
3937.74
3790.43
3643.11
3495.78
3348.43
3201.06
3053.65
2906.17
2758.61
2610.9
2462.99
2314.77
2166.09
2016.73
1866.39
1714.6
1560.69
1403.73
1242.61
1076.07
905.965
741.197
544.591
109.451
-110.444
14613.2
14310.8
14323.7
14238.1
14102.1
14001.9
13904.7
13793.3
13675.7
13555.4
13431.4
13303.3
13171.3
13036.2
12898.3
12758.2
12616.2
12472.8
12328.3
12182.9
12036.9
11890.5
11743.7
11596.7
11449.6
11302.4
11155.1
11007.8
10860.5
10713.1
10565.8
10418.5
10271.1
10123.8
9976.56
9829.25
9681.94
9534.63
9387.33
9240.03
9092.73
8945.43
8798.13
8650.83
8503.53
8356.24
8208.96
8061.7
7914.42
7767.13
7619.83
7472.57
7325.32
7178.03
7030.73
6883.43
6736.14
6588.88
6441.62
6294.33
6147.04
5999.74
5852.45
5705.15
5557.86
5410.56
5263.3
5116.05
4968.76
4821.46
4674.16
4526.9
4379.64
4232.34
4085.04
3937.74
3790.43
3643.11
3495.78
3348.43
3201.06
3053.64
2906.17
2758.6
2610.9
2462.99
2314.77
2166.09
2016.73
1866.39
1714.61
1560.69
1403.73
1242.61
1076.07
905.965
741.197
544.591
109.451
-110.444
14607.7
14305.6
14318.8
14233.1
14097.1
13997
13899.9
13788.8
13671.5
13551.6
13428.1
13300.4
13168.8
13034.1
12896.6
12756.7
12615.1
12471.9
12327.5
12182.3
12036.5
11890.1
11743.4
11596.5
11449.4
11302.2
11155
11007.7
10860.4
10713.1
10565.8
10418.4
10271.1
10123.8
9976.55
9829.24
9681.93
9534.63
9387.33
9240.02
9092.72
8945.43
8798.13
8650.83
8503.54
8356.24
8208.97
8061.7
7914.42
7767.13
7619.84
7472.57
7325.31
7178.02
7030.73
6883.43
6736.14
6588.88
6441.62
6294.33
6147.04
5999.74
5852.45
5705.15
5557.86
5410.57
5263.3
5116.04
4968.75
4821.46
4674.17
4526.9
4379.63
4232.34
4085.04
3937.74
3790.43
3643.11
3495.78
3348.43
3201.06
3053.65
2906.18
2758.63
2610.93
2463.04
2314.85
2166.2
2016.9
1866.64
1714.98
1561.25
1404.55
1243.83
1077.86
908.459
744.25
549.2
118.887
-103.087
14596.6
14295.2
14308.8
14223.1
14087
13987.1
13890.3
13779.7
13663.1
13544.1
13421.4
13294.5
13163.8
13029.8
12893
12753.8
12612.7
12470
12326
12181.1
12035.5
11889.4
11742.9
11596.1
11449.1
11302
11154.8
11007.6
10860.3
10713
10565.7
10418.4
10271.1
10123.8
9976.53
9829.23
9681.93
9534.62
9387.32
9240.02
9092.72
8945.43
8798.13
8650.83
8503.54
8356.25
8208.97
8061.7
7914.42
7767.13
7619.84
7472.57
7325.31
7178.02
7030.73
6883.44
6736.15
6588.88
6441.61
6294.33
6147.03
5999.74
5852.45
5705.15
5557.86
5410.57
5263.31
5116.04
4968.75
4821.46
4674.17
4526.9
4379.63
4232.34
4085.04
3937.74
3790.43
3643.11
3495.78
3348.44
3201.07
3053.67
2906.21
2758.67
2611
2463.14
2314.99
2166.42
2017.23
1867.13
1715.71
1562.34
1406.17
1246.21
1081.39
913.36
750.268
558.205
137.927
-88.3451
14579.6
14279.5
14293.7
14208
14071.9
13972.3
13876.1
13766.2
13650.7
13532.9
13411.5
13285.8
13156.4
13023.5
12887.8
12749.5
12609.2
12467.2
12323.8
12179.4
12034.2
11888.3
11742.1
11595.5
11448.6
11301.7
11154.6
11007.4
10860.2
10712.9
10565.6
10418.3
10271.1
10123.8
9976.5
9829.21
9681.91
9534.61
9387.32
9240.02
9092.72
8945.42
8798.13
8650.83
8503.54
8356.25
8208.97
8061.7
7914.42
7767.13
7619.84
7472.57
7325.3
7178.02
7030.73
6883.44
6736.15
6588.88
6441.61
6294.32
6147.03
5999.74
5852.45
5705.16
5557.86
5410.58
5263.31
5116.04
4968.75
4821.46
4674.17
4526.9
4379.62
4232.34
4085.04
3937.74
3790.43
3643.12
3495.79
3348.45
3201.09
3053.7
2906.25
2758.73
2611.09
2463.28
2315.2
2166.74
2017.71
1867.85
1716.78
1563.92
1408.51
1249.67
1086.49
920.448
758.986
571.049
166.401
-66.3846
14556.5
14258.6
14273.5
14187.8
14052
13952.9
13857.4
13748.6
13634.5
13518.3
13398.6
13274.6
13146.7
13015.4
12881
12744
12604.7
12463.5
12320.9
12177.1
12032.4
11886.9
11741
11594.7
11448
11301.2
11154.2
11007.1
10860
10712.8
10565.5
10418.3
10271
10123.7
9976.47
9829.19
9681.9
9534.6
9387.31
9240.01
9092.72
8945.42
8798.13
8650.83
8503.54
8356.25
8208.97
8061.7
7914.42
7767.13
7619.85
7472.57
7325.3
7178.02
7030.73
6883.44
6736.15
6588.88
6441.61
6294.32
6147.03
5999.74
5852.45
5705.16
5557.87
5410.58
5263.31
5116.03
4968.75
4821.46
4674.17
4526.9
4379.62
4232.33
4085.04
3937.74
3790.43
3643.12
3495.8
3348.47
3201.11
3053.73
2906.3
2758.81
2611.21
2463.46
2315.48
2167.15
2018.33
1868.77
1718.15
1565.94
1411.49
1254.06
1092.94
929.4
770.001
587.015
203.691
-37.6516
14527.3
14232.6
14248.3
14162.8
14027.4
13929.1
13834.7
13727.3
13614.9
13500.7
13383
13261.1
13135.1
13005.6
12872.9
12737.3
12599.2
12459.1
12317.4
12174.3
12030.2
11885.3
11739.7
11593.7
11447.3
11300.6
11153.8
11006.8
10859.7
10712.6
10565.4
10418.2
10270.9
10123.7
9976.44
9829.16
9681.88
9534.59
9387.3
9240.01
9092.71
8945.42
8798.13
8650.83
8503.54
8356.25
8208.97
8061.7
7914.42
7767.13
7619.85
7472.57
7325.3
7178.02
7030.73
6883.44
6736.15
6588.88
6441.6
6294.32
6147.03
5999.74
5852.45
5705.16
5557.87
5410.58
5263.31
5116.03
4968.75
4821.46
4674.17
4526.9
4379.62
4232.33
4085.04
3937.74
3790.44
3643.13
3495.81
3348.48
3201.14
3053.77
2906.36
2758.9
2611.35
2463.67
2315.8
2167.64
2019.05
1869.85
1719.75
1568.32
1414.99
1259.2
1100.47
939.801
782.77
605.344
248.611
-2.93359
14492
14201.8
14218.2
14133
13998.7
13901.5
13808.3
13702.8
13592.5
13480.6
13365.3
13245.7
13121.9
12994.5
12863.6
12729.6
12593
12454.1
12313.4
12171.1
12027.7
11883.3
11738.2
11592.5
11446.4
11300
11153.3
11006.5
10859.5
10712.4
10565.3
10418.1
10270.9
10123.6
9976.4
9829.13
9681.86
9534.58
9387.29
9240
9092.71
8945.42
8798.13
8650.83
8503.54
8356.25
8208.97
8061.69
7914.41
7767.13
7619.85
7472.57
7325.3
7178.01
7030.73
6883.44
6736.16
6588.88
6441.6
6294.32
6147.03
5999.74
5852.45
5705.16
5557.87
5410.58
5263.31
5116.03
4968.75
4821.46
4674.18
4526.9
4379.62
4232.33
4085.04
3937.74
3790.44
3643.14
3495.82
3348.5
3201.17
3053.82
2906.43
2759
2611.51
2463.91
2316.16
2168.18
2019.86
1871.06
1721.55
1570.97
1418.87
1264.89
1108.76
951.175
796.654
625.153
299.451
36.6104
14450.7
14166.6
14183.7
14099.2
13966.4
13870.6
13779.1
13675.7
13567.9
13458.6
13345.9
13228.8
13107.5
12982.3
12853.4
12721.2
12586.1
12448.6
12309
12167.6
12025
11881.2
11736.6
11591.3
11445.4
11299.2
11152.8
11006
10859.2
10712.2
10565.1
10418
10270.8
10123.6
9976.35
9829.1
9681.84
9534.56
9387.28
9239.99
9092.7
8945.41
8798.12
8650.83
8503.54
8356.26
8208.97
8061.69
7914.41
7767.13
7619.85
7472.57
7325.3
7178.01
7030.73
6883.44
6736.16
6588.88
6441.6
6294.32
6147.03
5999.74
5852.45
5705.16
5557.87
5410.59
5263.31
5116.03
4968.75
4821.46
4674.18
4526.9
4379.62
4232.33
4085.04
3937.75
3790.45
3643.14
3495.84
3348.52
3201.2
3053.86
2906.5
2759.11
2611.67
2464.16
2316.54
2168.75
2020.72
1872.34
1723.45
1573.78
1422.99
1270.9
1117.44
963.025
810.987
645.425
354.152
79.536
14404.2
14127.7
14145.3
14061.9
13931.4
13837.5
13747.9
13646.9
13541.9
13435.4
13325.5
13211.1
13092.3
12969.5
12842.7
12712.4
12578.9
12442.7
12304.3
12163.9
12022.1
11878.9
11734.8
11589.9
11444.4
11298.5
11152.2
11005.6
10858.9
10711.9
10564.9
10417.8
10270.7
10123.5
9976.3
9829.07
9681.81
9534.54
9387.27
9239.98
9092.7
8945.41
8798.12
8650.83
8503.54
8356.26
8208.97
8061.69
7914.41
7767.13
7619.85
7472.57
7325.29
7178.01
7030.73
6883.44
6736.16
6588.88
6441.6
6294.32
6147.03
5999.74
5852.45
5705.16
5557.87
5410.59
5263.31
5116.03
4968.75
4821.46
4674.18
4526.9
4379.62
4232.33
4085.04
3937.75
3790.45
3643.15
3495.85
3348.55
3201.23
3053.91
2906.58
2759.23
2611.85
2464.42
2316.93
2169.34
2021.6
1873.65
1725.39
1576.63
1427.16
1276.95
1126.14
974.796
825.064
665.167
410.628
124.256
14353.3
14086.3
14104
14022.2
13895
13803.2
13715.8
13617.7
13515.6
13412
13304.9
13193.2
13077
12956.5
12831.8
12703.4
12571.6
12436.8
12299.5
12160.1
12019.1
11876.6
11733
11588.5
11443.4
11297.7
11151.6
11005.2
10858.5
10711.7
10564.7
10417.7
10270.6
10123.4
9976.25
9829.03
9681.78
9534.52
9387.25
9239.97
9092.69
8945.41
8798.12
8650.83
8503.54
8356.26
8208.97
8061.69
7914.41
7767.13
7619.85
7472.57
7325.29
7178.01
7030.73
6883.44
6736.16
6588.88
6441.6
6294.31
6147.03
5999.74
5852.45
5705.16
5557.87
5410.59
5263.31
5116.03
4968.75
4821.46
4674.18
4526.9
4379.62
4232.33
4085.04
3937.75
3790.46
3643.16
3495.86
3348.57
3201.26
3053.96
2906.65
2759.34
2612.01
2464.68
2317.31
2169.92
2022.46
1874.94
1727.29
1579.42
1431.22
1282.84
1134.53
986.075
838.422
683.821
467.363
169.414
14299.4
14044
14061.3
13981.6
13858.5
13769.1
13683.9
13588.7
13489.7
13389
13284.6
13175.6
13061.9
12943.7
12821.1
12694.5
12564.3
12430.9
12294.7
12156.3
12016.1
11874.2
11731.2
11587.1
11442.3
11296.9
11151
11004.7
10858.2
10711.4
10564.6
10417.6
10270.5
10123.4
9976.2
9828.99
9681.76
9534.5
9387.24
9239.97
9092.69
8945.4
8798.12
8650.83
8503.54
8356.26
8208.97
8061.69
7914.41
7767.13
7619.85
7472.57
7325.29
7178.01
7030.73
6883.44
6736.16
6588.88
6441.6
6294.31
6147.03
5999.74
5852.45
5705.16
5557.87
5410.59
5263.31
5116.03
4968.75
4821.46
4674.18
4526.9
4379.62
4232.33
4085.05
3937.75
3790.46
3643.17
3495.88
3348.59
3201.3
3054.01
2906.72
2759.44
2612.17
2464.92
2317.68
2170.46
2023.28
1876.15
1729.08
1582.06
1435.05
1288.36
1142.36
996.538
850.827
701.656
525.044
215.401
14244.5
14002.4
14018.7
13941.5
13823.2
13736.2
13653.4
13561.1
13465.1
13367.1
13265.4
13158.9
13047.6
12931.5
12810.9
12686
12557.3
12425.2
12290.1
12152.7
12013.2
11872
11729.4
11585.8
11441.2
11296.1
11150.4
11004.3
10857.8
10711.2
10564.4
10417.4
10270.4
10123.3
9976.15
9828.95
9681.73
9534.49
9387.23
9239.96
9092.68
8945.4
8798.11
8650.83
8503.54
8356.26
8208.97
8061.69
7914.41
7767.13
7619.85
7472.57
7325.29
7178.01
7030.73
6883.44
6736.16
6588.88
6441.6
6294.31
6147.03
5999.74
5852.45
5705.16
5557.87
5410.59
5263.31
5116.03
4968.75
4821.46
4674.18
4526.9
4379.62
4232.33
4085.05
3937.76
3790.47
3643.18
3495.89
3348.6
3201.32
3054.05
2906.79
2759.54
2612.32
2465.14
2318.01
2170.96
2024.02
1877.25
1730.71
1584.43
1438.51
1293.33
1149.36
1005.86
862.022
719.094
586.234
264.602
14191.2
13963.8
13978.2
13903.8
13790.8
13706
13625.4
13536
13442.7
13347.2
13247.8
13143.6
13034.4
12920.3
12801.4
12678.1
12550.8
12419.9
12285.9
12149.3
12010.5
11869.8
11727.7
11584.5
11440.3
11295.3
11149.8
11003.8
10857.5
10711
10564.2
10417.3
10270.3
10123.2
9976.1
9828.92
9681.71
9534.47
9387.21
9239.95
9092.67
8945.39
8798.11
8650.83
8503.54
8356.26
8208.97
8061.69
7914.41
7767.13
7619.85
7472.57
7325.29
7178.01
7030.73
6883.44
6736.16
6588.88
6441.6
6294.31
6147.03
5999.74
5852.45
5705.16
5557.88
5410.59
5263.31
5116.03
4968.75
4821.46
4674.18
4526.9
4379.62
4232.33
4085.05
3937.76
3790.47
3643.18
3495.9
3348.62
3201.35
3054.09
2906.84
2759.62
2612.45
2465.33
2318.3
2171.39
2024.67
1878.21
1732.12
1586.49
1441.51
1297.64
1155.41
1013.91
871.954
736.398
650.241
316.685
14142.1
13930.3
13942
13870.4
13762.6
13679.8
13601
13514.3
13423.4
13330
13232.7
13130.5
13023.1
12910.6
12793.2
12671.3
12545.1
12415.2
12282.1
12146.2
12008.1
11867.9
11726.3
11583.3
11439.4
11294.6
11149.3
11003.4
10857.2
10710.8
10564.1
10417.2
10270.2
10123.2
9976.05
9828.89
9681.68
9534.45
9387.2
9239.94
9092.67
8945.39
8798.11
8650.82
8503.54
8356.26
8208.97
8061.69
7914.41
7767.13
7619.85
7472.57
7325.29
7178.01
7030.73
6883.44
6736.16
6588.88
6441.59
6294.31
6147.03
5999.74
5852.45
5705.16
5557.88
5410.59
5263.31
5116.03
4968.75
4821.46
4674.18
4526.9
4379.62
4232.33
4085.05
3937.76
3790.48
3643.19
3495.91
3348.63
3201.37
3054.12
2906.89
2759.69
2612.55
2465.49
2318.54
2171.75
2025.2
1879
1733.28
1588.2
1443.98
1301.2
1160.37
1020.53
880.501
752.997
711.255
366.546
14100.4
13904.4
13912
13843
13740.2
13659.1
13581.8
13497.1
13408.2
13316.5
13220.8
13120.1
13014.1
12902.9
12786.7
12665.8
12540.5
12411.5
12279.1
12143.8
12006.1
11866.4
11725
11582.4
11438.7
11294.1
11148.9
11003.1
10857
10710.6
10563.9
10417.1
10270.2
10123.1
9976.02
9828.86
9681.66
9534.44
9387.19
9239.93
9092.66
8945.39
8798.11
8650.82
8503.54
8356.26
8208.97
8061.69
7914.41
7767.13
7619.85
7472.57
7325.29
7178.01
7030.73
6883.44
6736.16
6588.88
6441.59
6294.31
6147.02
5999.74
5852.45
5705.16
5557.88
5410.59
5263.31
5116.03
4968.75
4821.46
4674.18
4526.9
4379.62
4232.33
4085.05
3937.76
3790.48
3643.19
3495.92
3348.64
3201.38
3054.14
2906.92
2759.75
2612.64
2465.61
2318.72
2172.03
2025.62
1879.61
1734.18
1589.51
1445.89
1303.94
1164.16
1025.61
887.484
767.762
761.562
406.981
14068.8
13887.5
13890.1
13823.2
13724.9
13644.8
13568.4
13485.3
13397.7
13307.2
13212.5
13112.8
13007.7
12897.4
12782
12661.8
12537.2
12408.7
12276.8
12142
12004.6
11865.2
11724.1
11581.7
11438.1
11293.7
11148.5
11002.9
10856.8
10710.4
10563.8
10417
10270.1
10123.1
9975.99
9828.84
9681.65
9534.43
9387.19
9239.93
9092.66
8945.38
8798.1
8650.82
8503.54
8356.26
8208.97
8061.69
7914.41
7767.13
7619.85
7472.57
7325.29
7178.01
7030.72
6883.44
6736.16
6588.88
6441.59
6294.31
6147.02
5999.74
5852.45
5705.16
5557.88
5410.59
5263.31
5116.03
4968.75
4821.46
4674.18
4526.9
4379.62
4232.33
4085.05
3937.76
3790.48
3643.2
3495.92
3348.65
3201.39
3054.16
2906.95
2759.79
2612.69
2465.7
2318.85
2172.22
2025.91
1880.04
1734.81
1590.43
1447.23
1305.85
1166.79
1029.15
892.832
779.743
795.088
432.258
14048.9
13880.5
13877.1
13811.6
13716.8
13637.3
13561.2
13478.9
13392.1
13302.1
13208
13108.7
13004.2
12894.3
12779.3
12659.5
12535.3
12407.1
12275.5
12140.9
12003.8
11864.5
11723.6
11581.2
11437.8
11293.4
11148.3
11002.7
10856.7
10710.4
10563.8
10417
10270.1
10123.1
9975.97
9828.83
9681.64
9534.42
9387.18
9239.92
9092.66
8945.38
8798.1
8650.82
8503.54
8356.26
8208.97
8061.69
7914.41
7767.13
7619.85
7472.57
7325.29
7178.01
7030.72
6883.44
6736.16
6588.88
6441.59
6294.31
6147.02
5999.74
5852.45
5705.16
5557.88
5410.59
5263.31
5116.03
4968.75
4821.46
4674.18
4526.9
4379.62
4232.34
4085.05
3937.77
3790.48
3643.2
3495.92
3348.65
3201.4
3054.17
2906.96
2759.81
2612.73
2465.75
2318.93
2172.34
2026.08
1880.29
1735.17
1590.96
1448
1306.94
1168.27
1031.19
896.514
788.415
809.524
440.263
14041.4
13882.7
13872.9