/*--------------------------------*- C++ -*----------------------------------*\
| =========                 |                                                 |
| \\      /  F ield         | foam-extend: Open Source CFD                    |
|  \\    /   O peration     | Version:     5.0                                |
|   \\  /    A nd           | Web:         http://www.foam-extend.org         |
|    \\/     M anipulation  |                                                 |
\*---------------------------------------------------------------------------*/
FoamFile
{
    version     2.0;
    format      ascii;
    class       surfaceScalarField;
    location    "0.035";
    object      phi;
}
// * * * * * * * * * * * * * * * * * * * * * * * * * * * * * * * * * * * * * //

dimensions      [0 3 -1 0 0 0 0];

internalField   nonuniform List<scalar> 
7860
(
0.0075808
-0.0025808
0.00931345
-0.00173265
0.0130321
-0.00371867
0.0166198
-0.00358773
0.0193939
-0.0027741
0.0218778
-0.00248384
0.0242609
-0.00238314
0.0264584
-0.0021975
0.0284069
-0.00194849
0.0301509
-0.001744
0.0316804
-0.00152947
0.0330161
-0.0013357
0.0342348
-0.00121871
0.0353155
-0.00108073
0.0362474
-0.000931914
0.0370403
-0.000792911
0.0377088
-0.000668527
0.0382731
-0.000564231
0.0387296
-0.000456572
0.0390946
-0.000364926
0.0393935
-0.000298949
0.0396295
-0.000235956
0.0398198
-0.000190301
0.0399667
-0.000146883
0.0400776
-0.000110926
0.0401641
-8.65387e-05
0.0402305
-6.63802e-05
0.0402822
-5.16406e-05
0.0403216
-3.94621e-05
0.0403503
-2.87084e-05
0.0403711
-2.08024e-05
0.0403861
-1.49458e-05
0.0403958
-9.72404e-06
0.040404
-8.15137e-06
0.0404115
-7.59348e-06
0.0404166
-5.06892e-06
0.0404199
-3.32478e-06
0.0404222
-2.30704e-06
0.0404239
-1.6057e-06
0.040425
-1.11534e-06
0.0404258
-7.94031e-07
0.0404263
-5.69528e-07
0.0404267
-3.84434e-07
0.0404269
-1.54637e-07
0.0404266
2.63282e-07
0.0404259
7.55371e-07
0.0404254
5.0986e-07
0.0404261
-7.37532e-07
0.040427
-9.41617e-07
0.0404268
2.58991e-07
0.0404253
1.4982e-06
0.0404254
-8.54082e-08
0.040427
-1.63079e-06
0.0404276
-5.8374e-07
0.0404276
5.9587e-09
0.0404269
6.36703e-07
0.0404253
1.6307e-06
0.0404253
-2.08917e-08
0.0404269
-1.55829e-06
0.0404274
-4.99695e-07
0.0404276
-1.71042e-07
0.0404277
-1.40995e-07
0.0404277
-1.10257e-08
0.0404276
1.60121e-07
0.0404269
6.7744e-07
0.0404252
1.65688e-06
0.0404252
-1.04543e-08
0.0404268
-1.593e-06
0.0404273
-4.54274e-07
0.0404268
5.20708e-07
0.0404252
1.6148e-06
0.0404251
9.43526e-08
0.0404264
-1.31072e-06
0.0404268
-3.79794e-07
0.0404267
2.24605e-08
0.0404264
3.3503e-07
0.0404258
5.85577e-07
0.0404249
8.8536e-07
0.0404236
1.32093e-06
0.0404217
1.96213e-06
0.0404188
2.87775e-06
0.0404144
4.33996e-06
0.0404078
6.64644e-06
0.0403978
1.00001e-05
0.0403829
1.49031e-05
0.0403603
2.2604e-05
0.0403266
3.37097e-05
0.0402759
5.07342e-05
0.0402008
7.50441e-05
0.0400903
0.000110545
0.0399287
0.000161585
0.039695
0.000233651
0.0393611
0.000333889
0.0388963
0.000464799
0.0382673
0.000629
0.0373977
0.000869637
0.036186
0.00121167
0.0352887
0.000897326
0.0414284
-0.00613971
-0.00662394
0.0168374
-0.0144182
0.0254416
-0.0103368
0.0351139
-0.013391
0.0444515
-0.0129254
0.0524701
-0.0107927
0.0595993
-0.00961305
0.06617
-0.00895386
0.0721764
-0.00820387
0.0775046
-0.00727665
0.0822018
-0.00644124
0.0863155
-0.00564314
0.0899185
-0.00493876
0.0931118
-0.00441203
0.0958873
-0.00385616
0.0982629
-0.00330755
0.100274
-0.0028039
0.10195
-0.00234498
0.103338
-0.0019516
0.104463
-0.00158222
0.105369
-0.00127029
0.106095
-0.00102517
0.106668
-0.000808858
0.107124
-0.00064655
0.107476
-0.000498899
0.107744
-0.000378399
0.10795
-0.000293267
0.108108
-0.000223661
0.108228
-0.000172138
0.10832
-0.000131153
0.108387
-9.59595e-05
0.108436
-6.95201e-05
0.10847
-4.96703e-05
0.108494
-3.31665e-05
0.108513
-2.70448e-05
0.108529
-2.40376e-05
0.108541
-1.64215e-05
0.108548
-1.09859e-05
0.108554
-7.61677e-06
0.108557
-5.28765e-06
0.10856
-3.66807e-06
0.108562
-2.59408e-06
0.108563
-1.83391e-06
0.108564
-1.20623e-06
0.108564
-4.69445e-07
0.108564
7.25287e-07
0.108562
2.00463e-06
0.108562
1.29328e-06
0.108563
-1.95567e-06
0.108564
-2.44672e-06
0.108564
7.03089e-07
0.108562
3.84091e-06
0.108562
-2.86779e-07
0.108564
-4.32404e-06
0.108565
-1.66357e-06
0.108565
4.35049e-08
0.108564
1.82427e-06
0.108562
4.29131e-06
0.108562
-6.27546e-08
0.108564
-4.12458e-06
0.108565
-1.51124e-06
0.108566
-5.89223e-07
0.108566
-4.12368e-07
0.108566
1.33171e-08
0.108565
5.82071e-07
0.108564
1.99053e-06
0.108561
4.38257e-06
0.108561
-1.45402e-08
0.108564
-4.14381e-06
0.108565
-1.21039e-06
0.108564
1.4543e-06
0.108561
4.25532e-06
0.108561
2.94562e-07
0.108563
-3.39017e-06
0.108564
-1.05404e-06
0.108564
1.15027e-07
0.108563
1.09417e-06
0.108562
1.93156e-06
0.10856
2.94269e-06
0.108556
4.3975e-06
0.108552
6.5432e-06
0.108545
9.66709e-06
0.108535
1.45608e-05
0.108519
2.22034e-05
0.108496
3.35193e-05
0.108461
5.01821e-05
0.108407
7.60457e-05
0.108327
0.000113721
0.108207
0.000171001
0.108028
0.000254294
0.107763
0.000375611
0.107375
0.000549484
0.106811
0.000796821
0.106002
0.00114329
0.104863
0.00160357
0.103297
0.00219504
0.10121
0.00295695
0.0987196
0.00370196
0.0970079
0.00260904
0.1002
-0.0093316
-0.0104418
0.0225792
-0.0319975
0.0374896
-0.0252472
0.0518815
-0.0277829
0.0654483
-0.0264921
0.0775592
-0.0229037
0.0884204
-0.0204742
0.0982603
-0.0187938
0.107121
-0.0170647
0.114952
-0.0151073
0.121797
-0.0132862
0.127785
-0.0116312
0.133033
-0.0101872
0.13759
-0.00896881
0.141482
-0.00774861
0.144771
-0.00659649
0.147518
-0.0055502
0.149781
-0.00460856
0.151624
-0.00379465
0.153119
-0.00307707
0.154327
-0.00247865
0.155282
-0.00198015
0.15603
-0.00155666
0.156618
-0.0012345
0.15707
-0.000950476
0.157413
-0.000721214
0.157675
-0.000555767
0.157874
-0.000422188
0.158025
-0.000323136
0.158139
-0.000245365
0.158222
-0.000179545
0.158283
-0.000130005
0.158326
-9.27436e-05
0.158355
-6.22654e-05
0.158378
-5.02303e-05
0.158398
-4.39176e-05
0.158412
-3.00606e-05
0.158421
-2.02554e-05
0.158428
-1.40458e-05
0.158432
-9.72604e-06
0.158435
-6.74199e-06
0.158437
-4.7555e-06
0.158439
-3.34335e-06
0.15844
-2.19589e-06
0.15844
-8.91187e-07
0.15844
1.1736e-06
0.158438
3.35505e-06
0.158437
2.16461e-06
0.158439
-3.3383e-06
0.158441
-4.14516e-06
0.15844
1.16773e-06
0.158437
6.50453e-06
0.158438
-5.07634e-07
0.158441
-7.37218e-06
0.158442
-2.80845e-06
0.158442
8.95261e-08
0.158441
3.0887e-06
0.158438
7.29696e-06
0.158438
-1.10659e-07
0.158441
-7.03263e-06
0.158442
-2.572e-06
0.158442
-1.03086e-06
0.158442
-7.11898e-07
0.158442
3.88351e-08
0.158442
1.03178e-06
0.15844
3.38272e-06
0.158437
7.45749e-06
0.158437
-1.6556e-08
0.15844
-7.0328e-06
0.158441
-2.00497e-06
0.15844
2.46192e-06
0.158437
7.259e-06
0.158437
5.40323e-07
0.158439
-5.7099e-06
0.15844
-1.69162e-06
0.15844
3.06937e-07
0.158439
2.04508e-06
0.158437
3.5691e-06
0.158435
5.43693e-06
0.158431
8.12393e-06
0.158425
1.21014e-05
0.158417
1.79591e-05
0.158405
2.70041e-05
0.158386
4.10277e-05
0.158357
6.21938e-05
0.158314
9.32837e-05
0.158249
0.000141474
0.158151
0.000211616
0.158003
0.000318339
0.157782
0.000475871
0.157455
0.000702741
0.156973
0.00103098
0.156267
0.00150288
0.155244
0.00216641
0.153786
0.0030617
0.151751
0.00422981
0.149001
0.00570721
0.145497
0.0072054
0.141231
0.00687558
0.134689
-0.00278983
-0.00635851
0.025447
-0.0524444
0.0442808
-0.044081
0.0617049
-0.045207
0.0779151
-0.0427024
0.0926575
-0.037646
0.105999
-0.033816
0.118024
-0.0308181
0.128766
-0.0278075
0.13824
-0.0245811
0.146465
-0.021511
0.153698
-0.0188641
0.160081
-0.0165697
0.165519
-0.014407
0.17009
-0.0123196
0.173906
-0.0104124
0.177058
-0.00870247
0.179634
-0.00718462
0.181694
-0.00585466
0.183377
-0.00475998
0.184754
-0.00385616
0.185817
-0.00304249
0.18664
-0.00237989
0.187281
-0.00187571
0.187774
-0.00144304
0.188148
-0.00109587
0.188433
-0.000840272
0.188646
-0.000635612
0.188808
-0.000484561
0.188929
-0.000366921
0.189018
-0.000268099
0.189082
-0.000194033
0.189128
-0.000138362
0.189158
-9.26587e-05
0.189182
-7.45193e-05
0.189203
-6.49973e-05
0.189218
-4.42853e-05
0.189227
-2.98775e-05
0.189234
-2.06214e-05
0.189238
-1.42772e-05
0.189241
-9.90635e-06
0.189244
-6.98283e-06
0.189245
-4.89369e-06
0.189246
-3.23773e-06
0.189247
-1.39878e-06
0.189246
1.56783e-06
0.189245
4.78565e-06
0.189244
3.17325e-06
0.189246
-4.88497e-06
0.189247
-6.0679e-06
0.189247
1.60964e-06
0.189244
9.6035e-06
0.189244
-6.99324e-07
0.189248
-1.08061e-05
0.189249
-3.89874e-06
0.189249
1.27873e-07
0.189247
4.2866e-06
0.189244
1.06958e-05
0.189244
-1.48794e-07
0.189247
-1.03188e-05
0.189248
-3.51816e-06
0.189249
-1.40702e-06
0.189249
-1.01785e-06
0.189249
4.41882e-08
0.189249
1.40813e-06
0.189247
4.6716e-06
0.189244
1.09132e-05
0.189244
-1.1856e-08
0.189247
-1.03357e-05
0.189248
-2.78998e-06
0.189247
3.44843e-06
0.189244
1.06732e-05
0.189243
8.19536e-07
0.189246
-8.33818e-06
0.189246
-2.19787e-06
0.189246
5.95975e-07
0.189245
3.08799e-06
0.189243
5.29772e-06
0.189241
8.05831e-06
0.189237
1.20327e-05
0.189231
1.79469e-05
0.189222
2.67886e-05
0.189209
4.01616e-05
0.189189
6.06503e-05
0.18916
9.1999e-05
0.189114
0.000138945
0.189045
0.00021011
0.188943
0.000314389
0.188787
0.00047404
0.188551
0.000711323
0.188203
0.00105074
0.18769
0.00154429
0.186932
0.0022614
0.185823
0.00327481
0.184226
0.00465892
0.181966
0.00648988
0.178828
0.00884529
0.174473
0.0115604
0.167517
0.0138317
0.152622
0.0121052
0.0039873
0.0256393
-0.0730837
0.0457137
-0.0641555
0.0641353
-0.0636286
0.0812956
-0.0598627
0.0971261
-0.0534764
0.111584
-0.0482735
0.124624
-0.0438586
0.136246
-0.0394291
0.146519
-0.034855
0.155507
-0.030499
0.163453
-0.0268095
0.170394
-0.023511
0.176224
-0.020237
0.181099
-0.0171943
0.185141
-0.0144545
0.188458
-0.0120199
0.191155
-0.0098815
0.193324
-0.00802341
0.195065
-0.0065011
0.196457
-0.00524792
0.197543
-0.00412814
0.198381
-0.00321807
0.199027
-0.00252221
0.199525
-0.00194086
0.199907
-0.00147769
0.200194
-0.00112701
0.200407
-0.000848717
0.200567
-0.000645016
0.200688
-0.000487344
0.200775
-0.000355416
0.200838
-0.000257213
0.200883
-0.000183457
0.200913
-0.000122079
0.200937
-9.85095e-05
0.200958
-8.64715e-05
0.200972
-5.80778e-05
0.200981
-3.90555e-05
0.200987
-2.69015e-05
0.200992
-1.86381e-05
0.200995
-1.29684e-05
0.200997
-9.14811e-06
0.200998
-6.42133e-06
0.200999
-4.28119e-06
0.201
-1.95812e-06
0.201
1.90174e-06
0.200998
6.3325e-06
0.200997
4.40284e-06
0.200999
-6.62915e-06
0.201001
-8.29533e-06
0.201001
1.99404e-06
0.200997
1.33129e-05
0.200997
-8.17824e-07
0.201001
-1.47659e-05
0.201002
-4.90607e-06
0.201002
1.45767e-07
0.201001
5.35531e-06
0.200997
1.46412e-05
0.200997
-1.42653e-07
0.201001
-1.41199e-05
0.201001
-4.29327e-06
0.201002
-1.69274e-06
0.201002
-1.33242e-06
0.201002
2.12414e-08
0.201002
1.67183e-06
0.201001
5.78014e-06
0.200997
1.48965e-05
0.200997
2.49793e-08
0.201001
-1.42104e-05
0.201001
-3.5624e-06
0.201
4.36434e-06
0.200996
1.46458e-05
0.200996
1.15213e-06
0.200999
-1.14119e-05
0.201
-2.57151e-06
0.200999
9.50321e-07
0.200998
4.20028e-06
0.200996
7.04899e-06
0.200994
1.06813e-05
0.20099
1.59285e-05
0.200984
2.37735e-05
0.200975
3.55737e-05
0.200962
5.35673e-05
0.200942
8.0318e-05
0.200913
0.000121333
0.200868
0.000183861
0.2008
0.000278529
0.200696
0.000418288
0.20054
0.000629573
0.200307
0.000944113
0.199959
0.00139944
0.199439
0.00206351
0.198671
0.00303033
0.19754
0.00440484
0.195898
0.00630139
0.193546
0.00884191
0.190208
0.0121831
0.185361
0.0164079
0.177022
0.0221698
0.158447
0.0306806
0.0169425
0.0235637
-0.0916474
0.0424647
-0.0830565
0.0599002
-0.0810641
0.0763271
-0.0762897
0.091744
-0.0688933
0.105983
-0.0625128
0.118877
-0.0567525
0.130354
-0.0509056
0.140574
-0.0450752
0.149767
-0.0396917
0.157876
-0.0349188
0.164775
-0.0304103
0.170563
-0.0260242
0.175389
-0.0220207
0.179374
-0.0184401
0.182631
-0.0152768
0.185269
-0.0125188
0.187388
-0.0101428
0.189072
-0.00818477
0.190398
-0.00657443
0.191437
-0.00516659
0.192239
-0.0040201
0.192847
-0.00313084
0.19332
-0.00241341
0.193689
-0.00184677
0.19396
-0.0013986
0.19416
-0.0010484
0.19431
-0.0007947
0.194422
-0.000599206
0.194503
-0.000436295
0.194561
-0.000315973
0.194603
-0.000225522
0.19463
-0.000149008
0.194653
-0.000121033
0.194674
-0.000107362
0.194686
-7.06534e-05
0.194695
-4.72839e-05
0.1947
-3.24996e-05
0.194704
-2.25589e-05
0.194707
-1.57986e-05
0.194709
-1.11555e-05
0.19471
-7.85548e-06
0.194711
-5.29636e-06
0.194712
-2.5789e-06
0.194712
2.13444e-06
0.19471
7.96268e-06
0.194709
5.89145e-06
0.194711
-8.55635e-06
0.194713
-1.08464e-05
0.194713
2.24287e-06
0.194709
1.76942e-05
0.194709
-7.99033e-07
0.194713
-1.92737e-05
0.194714
-5.75533e-06
0.194714
1.30672e-07
0.194713
6.16966e-06
0.194709
1.91687e-05
0.194708
-4.27865e-08
0.194713
-1.84616e-05
0.194713
-4.80342e-06
0.194713
-1.84851e-06
0.194714
-1.64653e-06
0.194714
-3.69268e-08
0.194714
1.77364e-06
0.194713
6.56676e-06
0.194708
1.94348e-05
0.194708
1.37727e-07
0.194713
-1.86967e-05
0.194714
-4.28502e-06
0.194713
5.11153e-06
0.194708
1.92145e-05
0.194708
1.56925e-06
0.194711
-1.49742e-05
0.194712
-2.74306e-06
0.194711
1.36011e-06
0.19471
5.3439e-06
0.194708
8.77684e-06
0.194706
1.31981e-05
0.194702
1.96288e-05
0.194697
2.93093e-05
0.194688
4.39911e-05
0.194676
6.60916e-05
0.194657
9.92402e-05
0.194628
0.000149569
0.194586
0.000226338
0.194521
0.000343562
0.19442
0.000519415
0.194272
0.000777538
0.194053
0.00116276
0.193721
0.00173206
0.193222
0.00256232
0.19248
0.00377171
0.191385
0.00550011
0.189781
0.0079056
0.187461
0.0111617
0.184133
0.0155108
0.179275
0.0212667
0.17114
0.0303047
0.153717
0.048103
0.0289184
0.0198501
-0.106498
0.0357034
-0.0989098
0.050518
-0.0958786
0.064764
-0.0905357
0.0784666
-0.0825959
0.0913195
-0.0753657
0.103059
-0.0684915
0.113636
-0.0614827
0.123249
-0.0546891
0.131875
-0.0483168
0.139352
-0.0423958
0.145711
-0.0367702
0.151061
-0.0313742
0.155518
-0.0264773
0.159188
-0.0221101
0.162177
-0.0182657
0.164589
-0.0149304
0.166521
-0.012075
0.168044
-0.00970792
0.169227
-0.00775781
0.170158
-0.00609737
0.170883
-0.00474511
0.171426
-0.00367401
0.171847
-0.00283426
0.172176
-0.0021751
0.172415
-0.00163837
0.17259
-0.00122326
0.17272
-0.000925019
0.172817
-0.00069551
0.172887
-0.00050633
0.17294
-0.000368845
0.172977
-0.000263346
0.173
-0.00017184
0.17302
-0.000140225
0.173038
-0.000126029
0.173049
-8.12172e-05
0.173056
-5.41126e-05
0.17306
-3.71875e-05
0.173064
-2.58693e-05
0.173066
-1.82065e-05
0.173068
-1.28818e-05
0.173069
-9.11657e-06
0.17307
-6.24893e-06
0.173071
-3.2867e-06
0.173071
2.14504e-06
0.173069
9.47888e-06
0.173067
7.55213e-06
0.173069
-1.05243e-05
0.173072
-1.35669e-05
0.173072
2.23689e-06
0.173067
2.24908e-05
0.173067
-5.77086e-07
0.173072
-2.40333e-05
0.173072
-6.29293e-06
0.173073
7.7898e-08
0.173072
6.52222e-06
0.173067
2.39919e-05
0.173067
2.04779e-07
0.173072
-2.3064e-05
0.173072
-4.90297e-06
0.173072
-1.81574e-06
0.173072
-1.92737e-06
0.173072
-1.31285e-07
0.173072
1.65784e-06
0.173072
6.80508e-06
0.173067
2.42288e-05
0.173067
3.74031e-07
0.173072
-2.35126e-05
0.173072
-4.84709e-06
0.173072
5.52461e-06
0.173067
2.41033e-05
0.173067
2.10399e-06
0.17307
-1.87736e-05
0.17307
-2.57223e-06
0.17307
1.86636e-06
0.173069
6.49234e-06
0.173067
1.04163e-05
0.173065
1.54907e-05
0.173061
2.29384e-05
0.173056
3.42591e-05
0.173049
5.14024e-05
0.173038
7.72032e-05
0.173021
0.000116154
0.172995
0.000175553
0.172956
0.000265483
0.172898
0.000401324
0.17281
0.000607081
0.172678
0.000910069
0.172479
0.00136168
0.172178
0.00203289
0.171725
0.003015
0.17105
0.00444725
0.170046
0.00650356
0.168565
0.00938697
0.166404
0.0133231
0.163294
0.0186204
0.158854
0.0257065
0.152128
0.0370308
0.139437
0.0607938
0.0372535
0.0151945
-0.116692
0.0267801
-0.110495
0.0378424
-0.106941
0.0488252
-0.101519
0.0598035
-0.0935741
0.0703422
-0.0859045
0.0801671
-0.0783165
0.0891602
-0.0704758
0.09738
-0.0629089
0.104779
-0.0557163
0.111185
-0.0488017
0.116623
-0.0422082
0.121206
-0.0359574
0.125021
-0.0302919
0.128155
-0.025244
0.130699
-0.0208099
0.132744
-0.0169755
0.134376
-0.0137069
0.135653
-0.0109851
0.136623
-0.00872725
0.137396
-0.0068709
0.138015
-0.0053639
0.138472
-0.00413074
0.138818
-0.00318065
0.139081
-0.00243752
0.139276
-0.0018338
0.139418
-0.0013648
0.139522
-0.00102921
0.1396
-0.000773317
0.139657
-0.000563318
0.139699
-0.000411643
0.13973
-0.000294215
0.139748
-0.000189693
0.139763
-0.0001551
0.139778
-0.000140857
0.139786
-8.89578e-05
0.139791
-5.91475e-05
0.139794
-4.07277e-05
0.139797
-2.84321e-05
0.139799
-2.01015e-05
0.1398
-1.42463e-05
0.139801
-1.01495e-05
0.139802
-7.10974e-06
0.139803
-4.11534e-06
0.139803
1.69932e-06
0.139802
1.03425e-05
0.139801
8.96822e-06
0.139802
-1.21039e-05
0.139805
-1.58771e-05
0.139805
1.82789e-06
0.139801
2.66514e-05
0.139801
-1.23387e-07
0.139805
-2.79652e-05
0.139804
-6.23988e-06
0.139805
2.20426e-09
0.139805
6.11905e-06
0.139801
2.8032e-05
0.1398
6.19312e-07
0.139804
-2.68852e-05
0.139804
-4.38557e-06
0.139804
-1.5173e-06
0.139804
-2.08761e-06
0.139804
-2.48952e-07
0.139804
1.26927e-06
0.139805
6.1809e-06
0.139801
2.81766e-05
0.139801
7.362e-07
0.139805
-2.75862e-05
0.139805
-5.00715e-06
0.139805
5.37091e-06
0.139801
2.82675e-05
0.1398
2.75535e-06
0.139803
-2.18663e-05
0.139802
-1.81165e-06
0.139802
2.58134e-06
0.139801
7.62822e-06
0.139799
1.18585e-05
0.139797
1.74342e-05
0.139794
2.57255e-05
0.13979
3.83944e-05
0.139784
5.75385e-05
0.139775
8.64124e-05
0.139761
0.000130203
0.139739
0.000197026
0.139706
0.000298426
0.139658
0.000449741
0.139586
0.000679209
0.139476
0.00102048
0.139308
0.00152908
0.139055
0.00228621
0.138672
0.00339759
0.138098
0.00502099
0.137241
0.00736136
0.135962
0.0106655
0.134075
0.0152098
0.131355
0.0213411
0.127593
0.029468
0.122739
0.0418848
0.116241
0.0672916
0.0407831
0.0102347
-0.121927
0.0169996
-0.11726
0.0236902
-0.113632
0.0307629
-0.108591
0.0383428
-0.101154
0.045912
-0.0934738
0.0531746
-0.085579
0.0600381
-0.0773393
0.0663822
-0.069253
0.0720733
-0.0614074
0.0770268
-0.0537552
0.08124
-0.0464214
0.0847977
-0.0395152
0.0877558
-0.03325
0.0901797
-0.0276679
0.0921401
-0.0227703
0.0937084
-0.0185438
0.0949533
-0.0149518
0.095921
-0.0119528
0.0966585
-0.00946477
0.0972375
-0.00744989
0.0976898
-0.00581618
0.0980301
-0.00447102
0.0982851
-0.00343568
0.0984745
-0.00262694
0.0986177
-0.00197694
0.0987211
-0.00146821
0.0987953
-0.00110346
0.0988505
-0.00082849
0.0988907
-0.000603454
0.0989208
-0.00044176
0.0989439
-0.000317298
0.0989589
-0.000204769
0.0989693
-0.000165435
0.098977
-0.000148609
0.098981
-9.292e-05
0.0989839
-6.20729e-05
0.0989862
-4.3004e-05
0.0989879
-3.01539e-05
0.0989892
-2.13778e-05
0.0989902
-1.52027e-05
0.0989909
-1.09181e-05
0.0989917
-7.85362e-06
0.0989927
-5.09516e-06
0.098994
3.7958e-07
0.098995
9.31564e-06
0.098995
8.95748e-06
0.0989952
-1.22418e-05
0.0989955
-1.62378e-05
0.0989965
8.95987e-07
0.0989958
2.73023e-05
0.0989952
4.57907e-07
0.0989955
-2.81957e-05
0.0989944
-5.1342e-06
0.0989944
-5.31709e-08
0.0989959
4.61436e-06
0.0989955
2.84064e-05
0.0989951
1.09991e-06
0.0989953
-2.7119e-05
0.0989939
-3.00103e-06
0.0989933
-8.69494e-07
0.0989931
-1.92839e-06
0.0989932
-3.56989e-07
0.0989939
5.72677e-07
0.0989958
4.33204e-06
0.0989956
2.83452e-05
0.0989953
1.07644e-06
0.0989957
-2.80313e-05
0.098995
-4.30749e-06
0.098996
4.38699e-06
0.0989954
2.89022e-05
0.0989947
3.39956e-06
0.0989946
-2.17015e-05
0.0989928
-6.5329e-08
0.0989917
3.74501e-06
0.0989906
8.72534e-06
0.0989894
1.30479e-05
0.0989879
1.89554e-05
0.0989858
2.78435e-05
0.0989826
4.15107e-05
0.098978
6.21391e-05
0.0989712
9.3277e-05
0.0989607
0.000140669
0.0989448
0.000212956
0.0989206
0.000322587
0.0988844
0.000485956
0.0988302
0.000733444
0.0987472
0.00110343
0.0986207
0.00165561
0.0984286
0.00247836
0.0981367
0.00368948
0.0976958
0.00546192
0.0970304
0.00802668
0.0960248
0.0116712
0.0945135
0.016721
0.0923115
0.0235431
0.0893298
0.0324496
0.0861262
0.0450885
0.0849785
0.0684392
0.0400747
0.00545293
-0.12238
0.00740741
-0.119215
0.00960842
-0.115833
0.0125299
-0.111513
0.0163653
-0.104989
0.0205878
-0.0976963
0.0249123
-0.0899035
0.0292197
-0.0816467
0.0333065
-0.0733398
0.0370116
-0.0651125
0.04026
-0.0570037
0.0430323
-0.0491937
0.0453764
-0.0418593
0.047322
-0.0351956
0.0489101
-0.029256
0.0501872
-0.0240474
0.0512005
-0.0195571
0.0519971
-0.0157484
0.0526095
-0.0125652
0.0530738
-0.00992908
0.053432
-0.00780808
0.0537049
-0.00608913
0.0539117
-0.00467779
0.0540641
-0.0035881
0.0541748
-0.00273765
0.0542606
-0.00206273
0.0543253
-0.00153291
0.0543667
-0.00114485
0.0543932
-0.000854997
0.0544148
-0.000625014
0.0544316
-0.000458641
0.0544466
-0.00033229
0.0544654
-0.000223582
0.0544718
-0.0001718
0.0544655
-0.000142282
0.0544644
-9.1785e-05
0.054465
-6.27319e-05
0.0544659
-4.39333e-05
0.0544667
-3.09532e-05
0.0544674
-2.20064e-05
0.0544679
-1.57214e-05
0.0544684
-1.13965e-05
0.054469
-8.44744e-06
0.0544701
-6.22418e-06
0.0544731
-2.57001e-06
0.0544787
3.6987e-06
0.054483
4.68124e-06
0.0544792
-8.50986e-06
0.054474
-1.10329e-05
0.0544755
-5.77108e-07
0.0544852
1.75912e-05
0.0544849
8.01208e-07
0.0544746
-1.79224e-05
0.0544717
-2.27088e-06
0.0544717
-2.32391e-08
0.0544747
1.66815e-06
0.0544848
1.83069e-05
0.0544845
1.31849e-06
0.0544745
-1.70675e-05
0.054472
-5.37021e-07
0.054471
1.66067e-07
0.0544701
-1.02452e-06
0.0544701
-3.95671e-07
0.0544711
-4.04519e-07
0.0544745
9.20916e-07
0.054485
1.78171e-05
0.0544852
9.45103e-07
0.0544751
-1.7979e-05
0.0544728
-1.94594e-06
0.0544749
2.29245e-06
0.0544844
1.93771e-05
0.0544841
3.69623e-06
0.0544746
-1.21903e-05
0.0544713
3.24243e-06
0.0544692
5.81342e-06
0.0544682
9.78127e-06
0.0544673
1.39206e-05
0.0544663
1.99537e-05
0.054465
2.91758e-05
0.0544631
4.34033e-05
0.0544603
6.49519e-05
0.054456
9.7529e-05
0.0544496
0.000147087
0.0544399
0.000222614
0.0544254
0.000337116
0.0544033
0.000508061
0.05437
0.000766755
0.0543188
0.0011546
0.0542401
0.00173434
0.0541195
0.00259895
0.0539341
0.0038749
0.05365
0.00574607
0.0532135
0.00846316
0.0525358
0.0123489
0.0514805
0.0177763
0.0498956
0.025128
0.0477271
0.0346181
0.0456543
0.0471613
0.047342
0.0667515
0.0371606
0.00117597
-0.118556
-0.00130106
-0.116738
-0.00330952
-0.113824
-0.00440275
-0.11042
-0.00433885
-0.105053
-0.00356673
-0.0984684
-0.00234676
-0.0911234
-0.000816247
-0.0831772
0.000804892
-0.074961
0.00235036
-0.0666579
0.00374783
-0.0584012
0.00494553
-0.0503914
0.00594515
-0.0428589
0.00677213
-0.0360226
0.00744219
-0.0299261
0.00797225
-0.0245775
0.00837992
-0.0199648
0.00868795
-0.0160564
0.00891574
-0.012793
0.00908134
-0.0100947
0.00920216
-0.0079289
0.00928854
-0.00617551
0.00935318
-0.00474243
0.00939638
-0.00363129
0.00942461
-0.00276588
0.00944863
-0.00208675
0.00948123
-0.00156551
0.00948979
-0.00115341
0.00947784
-0.000843042
0.00948005
-0.000627229
0.00948328
-0.000461862
0.00948961
-0.000338619
0.00952839
-0.000262363
0.00953244
-0.000175847
0.00949566
-0.000105498
0.00948797
-8.40965e-05
0.0094865
-6.12571e-05
0.00948608
-4.35148e-05
0.00948596
-3.08292e-05
0.00948594
-2.19912e-05
0.00948602
-1.57992e-05
0.0094862
-1.15691e-05
0.00948659
-8.83565e-06
0.00948772
-7.35796e-06
0.00949362
-8.46801e-06
0.00950968
-1.23614e-05
0.00952489
-1.05189e-05
0.0095115
4.87888e-06
0.00949243
8.03538e-06
0.00949414
-2.28867e-06
0.00953061
-1.8877e-05
0.00953112
3.00654e-07
0.0094941
1.90992e-05
0.00948916
2.66496e-06
0.009489
1.36781e-07
0.00949313
-2.45215e-06
0.00952987
-1.84328e-05
0.0095304
7.83872e-07
0.00949398
1.93612e-05
0.00949122
2.22169e-06
0.00948997
1.41965e-06
0.00948738
1.56893e-06
0.00948731
-3.24004e-07
0.00948834
-1.43875e-06
0.00949301
-3.74146e-06
0.00953064
-1.98191e-05
0.00953205
-4.55023e-07
0.00949509
1.89827e-05
0.00949035
2.79241e-06
0.00949345
-8.07962e-07
0.00952889
-1.6055e-05
0.00952939
3.19158e-06
0.00949591
2.12947e-05
0.00949093
8.22649e-06
0.00948713
9.61849e-06
0.00948616
1.07438e-05
0.00948566
1.44284e-05
0.00948523
2.03844e-05
0.00948477
2.96417e-05
0.00948425
4.39221e-05
0.00948336
6.5845e-05
0.00948194
9.89515e-05
0.0094799
0.000149127
0.00947687
0.000225645
0.00947249
0.000341499
0.00946559
0.000514965
0.00945501
0.000777334
0.0094383
0.00117131
0.00941155
0.00176109
0.00936898
0.00264152
0.00930006
0.00394383
0.00918835
0.00585778
0.009005
0.00864651
0.00869395
0.0126599
0.00815631
0.0183139
0.00727392
0.0260104
0.00599094
0.0359011
0.00482437
0.0483279
0.007131
0.0644449
0.0340858
-0.00240885
-0.111147
-0.00869519
-0.110451
-0.0143907
-0.108129
-0.0191068
-0.105703
-0.0225953
-0.101565
-0.0251689
-0.0958948
-0.027023
-0.0892693
-0.0282991
-0.0819011
-0.0291946
-0.0740655
-0.0298652
-0.0659873
-0.0303961
-0.0578704
-0.0308384
-0.0499491
-0.0312124
-0.0424849
-0.0315347
-0.0357004
-0.031816
-0.0296447
-0.0320616
-0.024332
-0.0322779
-0.0197484
-0.0324697
-0.0158646
-0.0326357
-0.0126269
-0.0327772
-0.00995326
-0.0328995
-0.00780657
-0.0330016
-0.00607336
-0.0330811
-0.00466293
-0.0331472
-0.00356529
-0.0332012
-0.00271185
-0.0332407
-0.00204718
-0.0332675
-0.00153877
-0.0332919
-0.00112903
-0.033315
-0.000819868
-0.0333304
-0.000611812
-0.0333409
-0.000451413
-0.033346
-0.000333527
-0.0333413
-0.000267006
-0.0333441
-0.000173078
-0.0333574
-9.22538e-05
-0.0333641
-7.733e-05
-0.0333672
-5.81484e-05
-0.0333689
-4.18176e-05
-0.0333699
-2.9817e-05
-0.0333706
-2.13536e-05
-0.0333709
-1.54306e-05
-0.0333711
-1.14325e-05
-0.0333709
-8.99348e-06
-0.0333701
-8.13397e-06
-0.0333675
-1.10588e-05
-0.0333621
-1.77623e-05
-0.0333576
-1.50765e-05
-0.0333609
8.17653e-06
-0.0333663
1.34491e-05
-0.0333655
-3.06054e-06
-0.0333559
-2.84822e-05
-0.0333553
-2.91944e-07
-0.0333654
2.91761e-05
-0.0333688
6.12454e-06
-0.0333691
3.71835e-07
-0.0333665
-5.00443e-06
-0.0333565
-2.85009e-05
-0.0333557
3.36387e-08
-0.0333655
2.91968e-05
-0.0333686
5.24834e-06
-0.0333697
2.54462e-06
-0.0333706
2.51799e-06
-0.0333707
-3.02249e-07
-0.0333697
-2.34887e-06
-0.0333667
-6.81132e-06
-0.0333561
-3.03414e-05
-0.033355
-1.58996e-06
-0.0333648
2.87787e-05
-0.0333678
5.74044e-06
-0.0333661
-2.4853e-06
-0.0333565
-2.56008e-05
-0.0333558
2.45464e-06
-0.0333649
3.04263e-05
-0.0333685
1.1788e-05
-0.0333703
1.14453e-05
-0.0333709
1.13438e-05
-0.033371
1.45309e-05
-0.0333708
2.02242e-05
-0.0333704
2.92503e-05
-0.0333698
4.323e-05
-0.0333687
6.47666e-05
-0.033367
9.73168e-05
-0.0333646
0.000146664
-0.0333608
0.000221835
-0.0333548
0.000335542
-0.0333461
0.000506232
-0.0333331
0.000764352
-0.0333142
0.00115239
-0.0332871
0.00173402
-0.0332487
0.00260317
-0.0331964
0.00389151
-0.0331279
0.00578922
-0.0330454
0.00856401
-0.0329676
0.0125822
-0.0329461
0.0182924
-0.0330584
0.0261227
-0.0333639
0.0362067
-0.0335253
0.0484893
-0.030834
0.0617536
0.0311594
-0.00522499
-0.100922
-0.0145813
-0.101095
-0.0233235
-0.0993866
-0.0311573
-0.0978696
-0.0378026
-0.0949195
-0.0434176
-0.0902798
-0.0481534
-0.0845335
-0.0521158
-0.0779387
-0.0554557
-0.0707255
-0.0583
-0.063143
-0.06073
-0.0554404
-0.0627987
-0.0478804
-0.0645459
-0.0407377
-0.0660169
-0.0342293
-0.0672478
-0.0284138
-0.0682695
-0.0233103
-0.0691106
-0.0189073
-0.0697975
-0.0151777
-0.0703482
-0.0120763
-0.0707927
-0.00950874
-0.0711585
-0.00744074
-0.0714457
-0.00578614
-0.0716663
-0.00444237
-0.07184
-0.0033916
-0.0719749
-0.00257691
-0.0720768
-0.00194529
-0.0721534
-0.00146215
-0.0722104
-0.00107207
-0.0722521
-0.000778148
-0.0722843
-0.000579562
-0.0723084
-0.000427386
-0.0723246
-0.000317272
-0.0723373
-0.000254313
-0.0723459
-0.000164529
-0.0723521
-8.60474e-05
-0.0723586
-7.07547e-05
-0.072363
-5.37479e-05
-0.0723659
-3.8922e-05
-0.0723678
-2.79826e-05
-0.072369
-2.01298e-05
-0.0723698
-1.46328e-05
-0.0723702
-1.09915e-05
-0.0723703
-8.88834e-06
-0.07237
-8.47388e-06
-0.0723692
-1.18386e-05
-0.0723685
-1.85085e-05
-0.0723682
-1.53772e-05
-0.0723676
7.66612e-06
-0.0723676
1.34022e-05
-0.0723674
-3.21978e-06
-0.0723681
-2.78391e-05
-0.0723677
-6.90635e-07
-0.0723674
2.88543e-05
-0.0723691
7.88369e-06
-0.0723693
6.06783e-07
-0.0723683
-6.0866e-06
-0.0723685
-2.82545e-05
-0.0723679
-5.30831e-07
-0.0723676
2.88193e-05
-0.0723695
7.2263e-06
-0.0723703
3.35479e-06
-0.0723706
2.76007e-06
-0.0723706
-3.32412e-07
-0.0723699
-2.96855e-06
-0.0723684
-8.32536e-06
-0.0723684
-3.03476e-05
-0.0723677
-2.34684e-06
-0.072367
2.8133e-05
-0.0723683
7.03658e-06
-0.0723677
-3.03568e-06
-0.0723681
-2.52015e-05
-0.0723676
1.88742e-06
-0.0723673
3.01166e-05
-0.0723691
1.35907e-05
-0.0723697
1.21005e-05
-0.0723699
1.15075e-05
-0.0723696
1.42102e-05
-0.0723688
1.9482e-05
-0.0723676
2.80084e-05
-0.0723656
4.12804e-05
-0.0723626
6.17532e-05
-0.072358
9.27419e-05
-0.0723511
0.000139741
-0.0723405
0.000211266
-0.0723244
0.00031942
-0.0723003
0.000482079
-0.072264
0.000728059
-0.0722097
0.00109818
-0.0721293
0.00165355
-0.0720105
0.00248435
-0.0718371
0.00371819
-0.0715877
0.00553976
-0.0712364
0.00821276
-0.0707607
0.0121065
-0.0701553
0.017687
-0.0694385
0.0254059
-0.0686294
0.0353975
-0.0674648
0.0473247
-0.0638493
0.0581382
0.0281125
-0.00728799
-0.0886339
-0.0189669
-0.0894161
-0.030085
-0.0882685
-0.0404437
-0.0875108
-0.0497575
-0.0856058
-0.0580369
-0.0820004
-0.0653591
-0.0772113
-0.0717796
-0.0715182
-0.077388
-0.0651171
-0.0822702
-0.0582608
-0.0864916
-0.051219
-0.090104
-0.044268
-0.0931613
-0.0376804
-0.0957292
-0.0316614
-0.0978661
-0.0262769
-0.099627
-0.0215493
-0.101063
-0.017471
-0.102224
-0.0140174
-0.103152
-0.0111478
-0.10388
-0.00878058
-0.104466
-0.00685521
-0.104936
-0.00531629
-0.105291
-0.00408739
-0.105561
-0.00312177
-0.10577
-0.00236768
-0.105931
-0.00178365
-0.106052
-0.0013414
-0.10614
-0.000984433
-0.106203
-0.000715213
-0.106251
-0.000531357
-0.106286
-0.000392142
-0.106312
-0.000291687
-0.106335
-0.000231527
-0.106348
-0.00015094
-0.106354
-8.023e-05
-0.106361
-6.34437e-05
-0.106367
-4.82347e-05
-0.106371
-3.51183e-05
-0.106373
-2.5397e-05
-0.106375
-1.83714e-05
-0.106376
-1.34631e-05
-0.106377
-1.02667e-05
-0.106377
-8.5286e-06
-0.106377
-8.43988e-06
-0.106377
-1.16688e-05
-0.106379
-1.73437e-05
-0.10638
-1.40707e-05
-0.106378
5.98281e-06
-0.106376
1.14146e-05
-0.106376
-3.11593e-06
-0.10638
-2.37815e-05
-0.10638
-8.23141e-07
-0.106376
2.49941e-05
-0.106377
8.41759e-06
-0.106377
7.88959e-07
-0.106377
-6.26179e-06
-0.106381
-2.44573e-05
-0.10638
-7.93678e-07
-0.106377
2.49902e-05