/*--------------------------------*- C++ -*----------------------------------*\
| =========                 |                                                 |
| \\      /  F ield         | foam-extend: Open Source CFD                    |
|  \\    /   O peration     | Version:     5.0                                |
|   \\  /    A nd           | Web:         http://www.foam-extend.org         |
|    \\/     M anipulation  |                                                 |
\*---------------------------------------------------------------------------*/
FoamFile
{
    version     2.0;
    format      ascii;
    class       volVectorField;
    location    "0.035";
    object      U;
}
// * * * * * * * * * * * * * * * * * * * * * * * * * * * * * * * * * * * * * //

dimensions      [0 1 -1 0 0 0 0];

internalField   nonuniform List<vector> 
4000
(
(0.731512 -0.0488552 0)
(1.81087 -0.0244618 0)
(2.22114 -0.0805559 0)
(2.9615 -0.080806 0)
(3.62369 -0.0601817 0)
(4.14493 -0.0532439 0)
(4.6224 -0.0524209 0)
(5.08139 -0.0491197 0)
(5.49793 -0.0438967 0)
(5.86748 -0.0395976 0)
(6.19183 -0.0349123 0)
(6.47809 -0.0305535 0)
(6.73246 -0.0285491 0)
(6.96211 -0.0257557 0)
(7.16271 -0.0225238 0)
(7.33501 -0.019302 0)
(7.48047 -0.0164873 0)
(7.60336 -0.0140426 0)
(7.70412 -0.0114459 0)
(7.7863 -0.00912134 0)
(7.85174 -0.00757063 0)
(7.90465 -0.00599936 0)
(7.94696 -0.00488716 0)
(7.98029 -0.00377173 0)
(8.00575 -0.00286617 0)
(8.02519 -0.0022379 0)
(8.04014 -0.00173539 0)
(8.0519 -0.00135088 0)
(8.06085 -0.00104076 0)
(8.06759 -0.000756692 0)
(8.07242 -0.000551182 0)
(8.07593 -0.000394237 0)
(8.07834 -0.000260176 0)
(8.08005 -0.000215958 0)
(8.08162 -0.000201756 0)
(8.08288 -0.000137411 0)
(8.08371 -9.10736e-05 0)
(8.08426 -6.26127e-05 0)
(8.08464 -4.36809e-05 0)
(8.0849 -3.01831e-05 0)
(8.08509 -2.1588e-05 0)
(8.08522 -1.54004e-05 0)
(8.08531 -1.02463e-05 0)
(8.08537 -3.57489e-06 0)
(8.08536 7.79457e-06 0)
(8.08525 2.04355e-05 0)
(8.08511 1.35315e-05 0)
(8.08513 -1.86465e-05 0)
(8.08532 -2.43206e-05 0)
(8.0854 6.64563e-06 0)
(8.0852 3.80472e-05 0)
(8.08504 -1.81397e-06 0)
(8.08523 -4.21492e-05 0)
(8.08547 -1.72266e-05 0)
(8.08554 -2.09239e-07 0)
(8.08547 1.7833e-05 0)
(8.08522 4.24645e-05 0)
(8.08504 3.45088e-07 0)
(8.08521 -4.0091e-05 0)
(8.08544 -1.54169e-05 0)
(8.0855 -5.95274e-06 0)
(8.08553 -4.14974e-06 0)
(8.08555 -1.75637e-07 0)
(8.08554 5.26483e-06 0)
(8.08546 1.94734e-05 0)
(8.0852 4.32889e-05 0)
(8.08502 6.35773e-07 0)
(8.0852 -4.06861e-05 0)
(8.08543 -1.30567e-05 0)
(8.08543 1.38207e-05 0)
(8.08519 4.17065e-05 0)
(8.085 3.3441e-06 0)
(8.08514 -3.36529e-05 0)
(8.08533 -1.19267e-05 0)
(8.08536 -5.41267e-07 0)
(8.08533 8.57402e-06 0)
(8.08523 1.57469e-05 0)
(8.08509 2.42614e-05 0)
(8.08488 3.60523e-05 0)
(8.08456 5.38957e-05 0)
(8.0841 7.84588e-05 0)
(8.0834 0.000119289 0)
(8.08234 0.000181578 0)
(8.08074 0.000274507 0)
(8.07834 0.000405641 0)
(8.07473 0.000618476 0)
(8.06929 0.000914307 0)
(8.06115 0.0013823 0)
(8.049 0.00201808 0)
(8.03103 0.00298752 0)
(8.00461 0.0043072 0)
(7.96628 0.00622967 0)
(7.91085 0.00874635 0)
(7.83289 0.0121408 0)
(7.726 0.0161685 0)
(7.57386 0.022412 0)
(7.33825 0.0289925 0)
(7.03414 0.00845671 0)
(7.88254 -0.204544 0)
(8.82878 -0.207973 0)
(1.4959 -0.35423 0)
(4.56468 -0.238855 0)
(6.04904 -0.374494 0)
(7.94508 -0.363018 0)
(9.74759 -0.29336 0)
(11.2587 -0.261495 0)
(12.6032 -0.24689 0)
(13.8632 -0.227552 0)
(15.0017 -0.202067 0)
(16.0042 -0.179917 0)
(16.875 -0.157709 0)
(17.648 -0.137987 0)
(18.3251 -0.124778 0)
(18.9204 -0.110051 0)
(19.4326 -0.0948755 0)
(19.871 -0.0808083 0)
(20.2377 -0.0679264 0)
(20.5429 -0.0570055 0)
(20.7897 -0.0461872 0)
(20.9937 -0.0370091 0)
(21.1541 -0.0301162 0)
(21.2824 -0.0238166 0)
(21.3845 -0.0191417 0)
(21.4642 -0.0147849 0)
(21.5254 -0.0111984 0)
(21.5719 -0.00871678 0)
(21.6077 -0.00666607 0)
(21.6351 -0.00515825 0)
(21.656 -0.00393985 0)
(21.6716 -0.00287919 0)
(21.683 -0.00208713 0)
(21.6912 -0.0014952 0)
(21.6968 -0.000986162 0)
(21.7009 -0.000814829 0)
(21.7044 -0.000739857 0)
(21.7072 -0.000499942 0)
(21.709 -0.000331973 0)
(21.7103 -0.000230753 0)
(21.7112 -0.000160409 0)
(21.7118 -0.000111337 0)
(21.7122 -7.89225e-05 0)
(21.7125 -5.61448e-05 0)
(21.7127 -3.73145e-05 0)
(21.7128 -1.48717e-05 0)
(21.7128 2.34034e-05 0)
(21.7126 6.6717e-05 0)
(21.7124 4.45741e-05 0)
(21.7124 -6.5014e-05 0)
(21.7127 -8.26677e-05 0)
(21.7129 2.25122e-05 0)
(21.7125 0.000130711 0)
(21.7123 -8.15369e-06 0)
(21.7126 -0.000144528 0)
(21.713 -5.32608e-05 0)
(21.7131 7.51901e-07 0)
(21.713 5.77902e-05 0)
(21.7126 0.000144183 0)
(21.7123 -1.4984e-06 0)
(21.7126 -0.000138057 0)
(21.713 -4.70593e-05 0)
(21.7131 -1.74906e-05 0)
(21.7132 -1.31971e-05 0)
(21.7132 -1.83301e-07 0)
(21.7132 1.67094e-05 0)
(21.713 6.25283e-05 0)
(21.7125 0.000146978 0)
(21.7122 -9.92225e-08 0)
(21.7125 -0.000139738 0)
(21.7129 -4.01503e-05 0)
(21.7129 4.64863e-05 0)
(21.7125 0.000142739 0)
(21.7122 9.40573e-06 0)
(21.7124 -0.000114852 0)
(21.7127 -3.42518e-05 0)
(21.7128 2.62257e-06 0)
(21.7127 3.28253e-05 0)
(21.7125 5.79241e-05 0)
(21.7122 8.79908e-05 0)
(21.7117 0.000131493 0)
(21.7109 0.000195414 0)
(21.7098 0.000287665 0)
(21.7082 0.000433632 0)
(21.7057 0.000663326 0)
(21.702 0.000999603 0)
(21.6963 0.00149236 0)
(21.6878 0.00226305 0)
(21.6749 0.00338203 0)
(21.6557 0.00508216 0)
(21.6268 0.00754123 0)
(21.5838 0.0111257 0)
(21.5205 0.0162693 0)
(21.4285 0.0235319 0)
(21.2948 0.0337032 0)
(21.1051 0.047062 0)
(20.8411 0.0640823 0)
(20.471 0.0866719 0)
(19.9537 0.110607 0)
(19.3674 0.0674681 0)
(20.5448 -0.436412 0)
(19.7334 -0.465916 0)
(1.8282 -1.11842 0)
(6.49522 -0.839988 0)
(8.97575 -0.992646 0)
(11.7133 -0.953678 0)
(14.372 -0.810464 0)
(16.674 -0.722466 0)
(18.7173 -0.667756 0)
(20.5848 -0.60917 0)
(22.2574 -0.539914 0)
(23.7279 -0.476175 0)
(24.9891 -0.416948 0)
(26.1212 -0.365417 0)
(27.0983 -0.324303 0)
(27.9383 -0.281999 0)
(28.6527 -0.241154 0)
(29.2543 -0.203769 0)
(29.7518 -0.169889 0)
(30.1614 -0.14062 0)
(30.4858 -0.114096 0)
(30.7598 -0.0918643 0)
(30.9716 -0.0737446 0)
(31.1399 -0.0581195 0)
(31.2722 -0.0462785 0)
(31.3742 -0.0356752 0)
(31.4529 -0.027064 0)
(31.5121 -0.0209203 0)
(31.5575 -0.0159332 0)
(31.5918 -0.0122322 0)
(31.6179 -0.00930514 0)
(31.6373 -0.00681186 0)
(31.6515 -0.00493348 0)
(31.6616 -0.00352247 0)
(31.6686 -0.00236192 0)
(31.6736 -0.00191298 0)
(31.6779 -0.00168294 0)
(31.6812 -0.00115365 0)
(31.6835 -0.000775957 0)
(31.685 -0.000538177 0)
(31.686 -0.000372917 0)
(31.6868 -0.000258488 0)
(31.6873 -0.000182479 0)
(31.6876 -0.000128513 0)
(31.6879 -8.41848e-05 0)
(31.688 -3.30615e-05 0)
(31.688 4.80498e-05 0)
(31.6878 0.000133503 0)
(31.6875 8.58866e-05 0)
(31.6876 -0.000130831 0)
(31.688 -0.000163067 0)
(31.6881 4.63802e-05 0)
(31.6877 0.000255633 0)
(31.6874 -1.97158e-05 0)
(31.6878 -0.000289868 0)
(31.6883 -0.000112025 0)
(31.6884 3.32543e-06 0)
(31.6883 0.000122743 0)
(31.6878 0.000287215 0)
(31.6874 -3.95829e-06 0)
(31.6878 -0.000276515 0)
(31.6882 -0.000102907 0)
(31.6884 -4.12713e-05 0)
(31.6884 -2.81706e-05 0)
(31.6885 1.63168e-06 0)
(31.6884 4.11579e-05 0)
(31.6883 0.000134666 0)
(31.6878 0.000293622 0)
(31.6874 -3.12476e-07 0)
(31.6877 -0.000276533 0)
(31.6882 -8.02417e-05 0)
(31.6882 9.72989e-05 0)
(31.6877 0.000285045 0)
(31.6873 2.08967e-05 0)
(31.6876 -0.000225661 0)
(31.6879 -6.9708e-05 0)
(31.688 9.32686e-06 0)
(31.6879 7.72891e-05 0)
(31.6876 0.000136307 0)
(31.6872 0.000207863 0)
(31.6866 0.000310708 0)
(31.6857 0.000462445 0)
(31.6844 0.000684997 0)
(31.6824 0.00103019 0)
(31.6794 0.00156904 0)
(31.6749 0.00237491 0)
(31.6679 0.00355779 0)
(31.6575 0.00539154 0)
(31.6417 0.00805994 0)
(31.6182 0.0121179 0)
(31.5828 0.0180739 0)
(31.5295 0.0266655 0)
(31.4517 0.0390428 0)
(31.3368 0.0567277 0)
(31.1687 0.0815212 0)
(30.9278 0.114668 0)
(30.5879 0.157565 0)
(30.1084 0.211531 0)
(29.4352 0.261617 0)
(28.5606 0.205038 0)
(29.0791 -0.383232 0)
(25.0191 -0.474378 0)
(1.85633 -2.09248 0)
(7.56019 -1.70754 0)
(10.6774 -1.80159 0)
(13.9289 -1.70879 0)
(17.1344 -1.49298 0)
(19.9558 -1.33728 0)
(22.4685 -1.2223 0)
(24.7384 -1.1062 0)
(26.7611 -0.978442 0)
(28.54 -0.857435 0)
(30.044 -0.751424 0)
(31.4314 -0.659944 0)
(32.6077 -0.577281 0)
(33.6 -0.496128 0)
(34.434 -0.420883 0)
(35.1269 -0.352968 0)
(35.6952 -0.292262 0)
(36.1592 -0.239272 0)
(36.5158 -0.194439 0)
(36.833 -0.157255 0)
(37.0693 -0.124744 0)
(37.2557 -0.0978171 0)
(37.4004 -0.0773416 0)
(37.511 -0.0595234 0)
(37.5976 -0.0451722 0)
(37.6619 -0.0347321 0)
(37.7108 -0.0263353 0)
(37.7476 -0.0201168 0)
(37.7754 -0.0152543 0)
(37.796 -0.0111556 0)
(37.811 -0.00807557 0)
(37.8217 -0.0057598 0)
(37.829 -0.00386488 0)
(37.8343 -0.00310976 0)
(37.8388 -0.00271161 0)
(37.8423 -0.00185489 0)
(37.8447 -0.00125209 0)
(37.8462 -0.000866034 0)
(37.8473 -0.000599495 0)
(37.848 -0.000415581 0)
(37.8485 -0.000292964 0)
(37.8489 -0.000205447 0)
(37.8492 -0.000135159 0)
(37.8493 -5.62661e-05 0)
(37.8494 6.89198e-05 0)
(37.8491 0.000201889 0)
(37.8488 0.000131515 0)
(37.8489 -0.000203289 0)
(37.8493 -0.000251916 0)
(37.8495 6.92101e-05 0)
(37.8491 0.000396815 0)
(37.8487 -3.06639e-05 0)
(37.8491 -0.000449537 0)
(37.8497 -0.00016736 0)
(37.8498 5.84883e-06 0)
(37.8496 0.000184307 0)
(37.8491 0.000444477 0)
(37.8487 -6.72008e-06 0)
(37.8491 -0.000429105 0)
(37.8496 -0.00015297 0)
(37.8497 -6.17476e-05 0)
(37.8498 -4.31206e-05 0)
(37.8498 2.59634e-06 0)
(37.8498 6.22356e-05 0)
(37.8496 0.000201748 0)
(37.8491 0.000454057 0)
(37.8487 -8.11666e-07 0)
(37.8491 -0.000428764 0)
(37.8496 -0.000118914 0)
(37.8496 0.000147205 0)
(37.849 0.000442769 0)
(37.8486 3.34645e-05 0)
(37.8489 -0.000347245 0)
(37.8493 -9.79133e-05 0)
(37.8493 2.16511e-05 0)
(37.8491 0.000127346 0)
(37.8489 0.000220731 0)
(37.8485 0.000336297 0)
(37.8478 0.000502448 0)
(37.8469 0.000748911 0)
(37.8455 0.00111482 0)
(37.8433 0.00167397 0)
(37.8402 0.00253463 0)
(37.8355 0.00384416 0)
(37.8283 0.00578973 0)
(37.8171 0.00876349 0)
(37.8008 0.0131027 0)
(37.7759 0.0197466 0)
(37.7386 0.0295915 0)
(37.6816 0.0436815 0)
(37.5991 0.0641192 0)
(37.4762 0.0936819 0)
(37.2951 0.135328 0)
(37.0331 0.191857 0)
(36.6591 0.266067 0)
(36.1255 0.360118 0)
(35.3516 0.459862 0)
(34.2081 0.492756 0)
(33.9632 0.182323 0)
(27.3324 -0.0892406 0)
(1.63864 -3.14593 0)
(7.78753 -2.70621 0)
(11.0804 -2.72009 0)
(14.4863 -2.56253 0)
(17.9183 -2.27453 0)
(20.9652 -2.04739 0)
(23.6946 -1.86195 0)
(26.152 -1.67626 0)
(28.3385 -1.48108 0)
(30.2735 -1.29558 0)
(31.9274 -1.13799 0)
(33.451 -0.998988 0)
(34.7136 -0.863858 0)
(35.7757 -0.736215 0)
(36.662 -0.620481 0)
(37.393 -0.517257 0)
(37.9893 -0.426122 0)
(38.4732 -0.346637 0)
(38.8539 -0.281384 0)
(39.1706 -0.227573 0)
(39.4123 -0.179286 0)
(39.603 -0.139986 0)
(39.7497 -0.110013 0)
(39.86 -0.0846503 0)
(39.949 -0.0643692 0)
(40.0139 -0.0492235 0)
(40.063 -0.0371577 0)
(40.0996 -0.0282831 0)
(40.1272 -0.0213941 0)
(40.1475 -0.0156168 0)
(40.1623 -0.0112969 0)
(40.1728 -0.00805657 0)
(40.1801 -0.00538384 0)
(40.1851 -0.00433463 0)
(40.1897 -0.00378797 0)
(40.1932 -0.00256538 0)
(40.1955 -0.00172903 0)
(40.1969 -0.00119211 0)
(40.198 -0.000825413 0)
(40.1987 -0.000573359 0)
(40.1992 -0.000404208 0)
(40.1996 -0.000283345 0)
(40.1998 -0.000187762 0)
(40.2 -8.27675e-05 0)
(40.2 8.78684e-05 0)
(40.1998 0.000276694 0)
(40.1995 0.000186761 0)
(40.1995 -0.000285807 0)
(40.2 -0.000355152 0)
(40.2002 9.08834e-05 0)
(40.1997 0.000565952 0)
(40.1993 -3.93419e-05 0)
(40.1997 -0.000634091 0)
(40.2004 -0.000220696 0)
(40.2004 7.68539e-06 0)
(40.2003 0.000242675 0)
(40.1997 0.000627383 0)
(40.1993 -8.26597e-06 0)
(40.1997 -0.000605942 0)
(40.2003 -0.000197214 0)
(40.2003 -7.88559e-05 0)
(40.2004 -5.87267e-05 0)
(40.2004 2.31151e-06 0)
(40.2004 7.91659e-05 0)
(40.2003 0.000263587 0)
(40.1997 0.000639414 0)
(40.1993 -4.88493e-07 0)
(40.1997 -0.000607649 0)
(40.2003 -0.00015804 0)
(40.2003 0.000196113 0)
(40.1997 0.000626802 0)
(40.1992 4.82766e-05 0)
(40.1995 -0.000489295 0)
(40.1999 -0.000120662 0)
(40.1999 3.78415e-05 0)
(40.1998 0.000181825 0)
(40.1995 0.000308832 0)
(40.1991 0.000469292 0)
(40.1984 0.000700516 0)
(40.1975 0.00104517 0)
(40.1961 0.00156222 0)
(40.194 0.00234818 0)
(40.1907 0.00353115 0)
(40.1861 0.00534427 0)
(40.179 0.0080861 0)
(40.168 0.0122414 0)
(40.1517 0.018356 0)
(40.1263 0.027649 0)
(40.0894 0.04147 0)
(40.0332 0.0613578 0)
(39.9497 0.0903246 0)
(39.8254 0.132444 0)
(39.6415 0.192129 0)
(39.3736 0.27405 0)
(38.9877 0.38306 0)
(38.431 0.524685 0)
(37.6036 0.695843 0)
(36.3067 0.891878 0)
(35.6321 1.05613 0)
(28.0004 0.515871 0)
(1.22573 -4.14616 0)
(7.29611 -3.70265 0)
(10.3315 -3.63439 0)
(13.5302 -3.41773 0)
(16.8747 -3.06956 0)
(19.8625 -2.77715 0)
(22.5592 -2.52088 0)
(24.988 -2.26264 0)
(27.1454 -2.00125 0)
(29.0867 -1.75677 0)
(30.819 -1.54516 0)
(32.3307 -1.3502 0)
(33.5853 -1.15853 0)
(34.6391 -0.982206 0)
(35.5148 -0.824057 0)
(36.2337 -0.683905 0)
(36.8178 -0.561294 0)
(37.2897 -0.455205 0)
(37.6632 -0.36813 0)
(37.9643 -0.296517 0)
(38.1947 -0.233062 0)
(38.3782 -0.181454 0)
(38.5179 -0.141764 0)
(38.6197 -0.109196 0)
(38.7072 -0.0833765 0)
(38.7687 -0.0633501 0)
(38.8149 -0.0475993 0)
(38.8491 -0.0361284 0)
(38.8748 -0.0272654 0)
(38.8935 -0.0198661 0)
(38.9074 -0.0143786 0)
(38.9171 -0.0102579 0)
(38.9238 -0.00680987 0)
(38.9286 -0.00551173 0)
(38.9329 -0.00485792 0)
(38.9363 -0.00323321 0)
(38.9383 -0.00216951 0)
(38.9396 -0.0014922 0)
(38.9405 -0.00103456 0)
(38.9412 -0.000722163 0)
(38.9416 -0.000509585 0)
(38.942 -0.000358046 0)
(38.9422 -0.000239571 0)
(38.9424 -0.000111999 0)
(38.9424 0.000103356 0)
(38.9422 0.000357728 0)
(38.9418 0.000254756 0)
(38.9419 -0.000378779 0)
(38.9424 -0.00047532 0)
(38.9427 0.0001084 0)
(38.9421 0.000769204 0)
(38.9416 -4.29146e-05 0)
(38.9421 -0.000847391 0)
(38.9428 -0.000268768 0)
(38.9428 8.04232e-06 0)
(38.9428 0.000292385 0)
(38.9421 0.000840505 0)
(38.9416 -6.56119e-06 0)
(38.9421 -0.000810938 0)
(38.9427 -0.000231016 0)
(38.9427 -9.04714e-05 0)
(38.9427 -7.46819e-05 0)
(38.9428 2.52994e-07 0)
(38.9428 8.90902e-05 0)
(38.9427 0.000313774 0)
(38.9421 0.000853861 0)
(38.9416 2.31196e-06 0)
(38.942 -0.000818148 0)
(38.9427 -0.000196399 0)
(38.9427 0.000239891 0)
(38.9421 0.000841627 0)
(38.9415 6.63535e-05 0)
(38.9418 -0.000656432 0)
(38.9424 -0.000135734 0)
(38.9423 5.6785e-05 0)
(38.9421 0.000238538 0)
(38.9419 0.000396691 0)
(38.9414 0.000599201 0)
(38.9408 0.000892511 0)
(38.94 0.00133254 0)
(38.9386 0.00199774 0)
(38.9366 0.0030038 0)
(38.9336 0.00450657 0)
(38.929 0.00679933 0)
(38.9223 0.0102967 0)
(38.9119 0.0156176 0)
(38.8964 0.02354 0)
(38.8713 0.0353279 0)
(38.8371 0.0528855 0)
(38.7839 0.0785978 0)
(38.7039 0.116082 0)
(38.5842 0.170667 0)
(38.4066 0.24846 0)
(38.1463 0.356248 0)
(37.7683 0.501394 0)
(37.218 0.693992 0)
(36.3954 0.944683 0)
(35.1029 1.32044 0)
(34.3833 1.99131 0)
(27.3371 1.16063 0)
(0.688232 -4.99425 0)
(6.27192 -4.58701 0)
(8.70912 -4.45534 0)
(11.3905 -4.1966 0)
(14.3759 -3.8089 0)
(17.0575 -3.46497 0)
(19.5008 -3.14625 0)
(21.7174 -2.82232 0)
(23.7277 -2.5045 0)
(25.5743 -2.20895 0)
(27.1759 -1.94063 0)
(28.5645 -1.68641 0)
(29.7247 -1.44075 0)
(30.6991 -1.21732 0)
(31.5066 -1.01784 0)
(32.1674 -0.841976 0)
(32.7024 -0.689059 0)
(33.1328 -0.557772 0)
(33.4734 -0.449261 0)
(33.7435 -0.359913 0)
(33.9468 -0.282856 0)
(34.1147 -0.220095 0)
(34.2395 -0.170882 0)
(34.3297 -0.131794 0)
(34.4082 -0.101011 0)
(34.4623 -0.076279 0)
(34.5031 -0.0570635 0)
(34.5329 -0.0432039 0)
(34.5552 -0.0325257 0)
(34.571 -0.023681 0)
(34.5836 -0.0171995 0)
(34.5923 -0.0122727 0)
(34.5981 -0.00806111 0)
(34.6023 -0.00656671 0)
(34.6059 -0.0058638 0)
(34.6089 -0.00382092 0)
(34.6106 -0.00255031 0)
(34.6117 -0.0017519 0)
(34.6124 -0.00121709 0)
(34.613 -0.000854438 0)
(34.6134 -0.000603833 0)
(34.6137 -0.000426088 0)
(34.6139 -0.000289141 0)
(34.6141 -0.00014484 0)
(34.6142 0.000111914 0)
(34.614 0.000441312 0)
(34.6136 0.000336345 0)
(34.6137 -0.000480014 0)
(34.6141 -0.000611812 0)
(34.6146 0.000116943 0)
(34.6139 0.00100666 0)
(34.6135 -3.78686e-05 0)
(34.6138 -0.0010874 0)
(34.6145 -0.000306745 0)
(34.6145 6.28815e-06 0)
(34.6145 0.000325697 0)
(34.6138 0.00108253 0)
(34.6135 1.27051e-06 0)
(34.6137 -0.00104243 0)
(34.6144 -0.000248925 0)
(34.6144 -9.42825e-05 0)
(34.6144 -9.02565e-05 0)
(34.6144 -3.83031e-06 0)
(34.6145 8.93114e-05 0)
(34.6145 0.000343725 0)
(34.6138 0.00109565 0)
(34.6135 1.02559e-05 0)
(34.6137 -0.00105903 0)
(34.6145 -0.000231273 0)
(34.6145 0.000272387 0)
(34.6138 0.00108611 0)
(34.6134 8.9657e-05 0)
(34.6135 -0.000847672 0)
(34.6142 -0.000138663 0)
(34.614 7.89051e-05 0)
(34.6138 0.000296148 0)
(34.6136 0.000481635 0)
(34.6132 0.000720672 0)
(34.6127 0.00106954 0)
(34.6119 0.00159757 0)
(34.6107 0.00239756 0)
(34.6089 0.00360201 0)
(34.6062 0.00541296 0)
(34.6021 0.00816906 0)
(34.5958 0.0123595 0)
(34.5863 0.0187231 0)
(34.5728 0.0283138 0)
(34.5512 0.0424109 0)
(34.5197 0.0634403 0)
(34.4716 0.0946096 0)
(34.3992 0.140144 0)
(34.2905 0.206503 0)
(34.1283 0.301549 0)
(33.8891 0.434311 0)
(33.539 0.614797 0)
(33.0251 0.857127 0)
(32.2641 1.18143 0)
(31.1139 1.70167 0)
(30.6084 2.76516 0)
(25.3538 1.68189 0)
(0.102556 -5.62866 0)
(4.92281 -5.28349 0)
(6.54184 -5.11431 0)
(8.48045 -4.84112 0)
(10.8972 -4.43744 0)
(13.0784 -4.0589 0)
(15.0907 -3.69192 0)
(16.9685 -3.31638 0)
(18.6865 -2.95462 0)
(20.2678 -2.61379 0)
(21.6451 -2.29138 0)
(22.8294 -1.98418 0)
(23.8235 -1.69143 0)
(24.6583 -1.42602 0)
(25.3488 -1.18949 0)
(25.9121 -0.981551 0)
(26.3666 -0.801468 0)
(26.7307 -0.647659 0)
(27.0178 -0.519844 0)
(27.2432 -0.414158 0)
(27.4049 -0.325805 0)
(27.5517 -0.253958 0)
(27.6552 -0.196063 0)
(27.7322 -0.151123 0)
(27.7942 -0.115914 0)
(27.8382 -0.0872353 0)
(27.8715 -0.0650184 0)
(27.8956 -0.0491094 0)
(27.9131 -0.0369178 0)
(27.9262 -0.0268805 0)
(27.9364 -0.0196079 0)
(27.9435 -0.0139968 0)
(27.9479 -0.00906182 0)
(27.9518 -0.00742333 0)
(27.954 -0.00673032 0)
(27.9565 -0.00428786 0)
(27.9577 -0.00284957 0)
(27.9585 -0.00195875 0)
(27.9591 -0.00136476 0)
(27.9596 -0.000962725 0)
(27.9599 -0.000681607 0)
(27.9601 -0.000483837 0)
(27.9603 -0.000334792 0)
(27.9605 -0.000182959 0)
(27.9606 0.000105297 0)
(27.9605 0.00051255 0)
(27.9603 0.000423279 0)
(27.9604 -0.000578425 0)
(27.9606 -0.000751514 0)
(27.9611 0.000109142 0)
(27.9603 0.00125566 0)
(27.9606 -2.08967e-05 0)
(27.9602 -0.00132946 0)
(27.961 -0.000324105 0)
(27.9609 2.42883e-06 0)
(27.961 0.000329465 0)
(27.9603 0.00132922 0)
(27.9606 1.78745e-05 0)
(27.9602 -0.00127705 0)
(27.9609 -0.000241799 0)
(27.9608 -8.67392e-05 0)
(27.9607 -0.000102962 0)
(27.9607 -9.66331e-06 0)
(27.9608 7.66968e-05 0)
(27.961 0.000339279 0)
(27.9603 0.0013398 0)
(27.9606 2.56432e-05 0)
(27.9602 -0.00130627 0)
(27.961 -0.000254642 0)
(27.9611 0.000283135 0)
(27.9603 0.00133682 0)
(27.9605 0.000119691 0)
(27.96 -0.00104202 0)
(27.9607 -0.000119927 0)
(27.9604 0.000107431 0)
(27.9602 0.000353219 0)
(27.96 0.000559181 0)
(27.9597 0.000827191 0)
(27.9592 0.00122302 0)
(27.9585 0.00182619 0)
(27.9576 0.00273864 0)
(27.9561 0.00411281 0)
(27.9539 0.00619315 0)
(27.9505 0.00936522 0)
(27.9453 0.0141742 0)
(27.9372 0.021394 0)
(27.926 0.0323404 0)
(27.9083 0.0485278 0)
(27.8817 0.0726568 0)
(27.8414 0.108562 0)
(27.7803 0.161181 0)
(27.6882 0.237975 0)
(27.5501 0.348452 0)
(27.3451 0.50388 0)
(27.0418 0.716847 0)
(26.5912 1.00405 0)
(25.9353 1.38775 0)
(25.0051 1.99136 0)
(24.761 3.24523 0)
(21.8594 1.97956 0)
(-0.481935 -6.01552 0)
(3.4567 -5.74513 0)
(4.14197 -5.56014 0)
(5.21464 -5.29352 0)
(6.92537 -4.90642 0)
(8.4729 -4.51986 0)
(9.92587 -4.12997 0)
(11.3333 -3.72452 0)
(12.6733 -3.32948 0)
(13.8826 -2.94997 0)
(14.9478 -2.58228 0)
(15.8636 -2.23105 0)
(16.6352 -1.89953 0)
(17.2831 -1.59897 0)
(17.8179 -1.33129 0)
(18.2528 -1.09638 0)
(18.6023 -0.893526 0)
(18.8805 -0.720913 0)
(19.0989 -0.576964 0)
(19.2691 -0.457574 0)
(19.3933 -0.360204 0)
(19.5001 -0.281198 0)
(19.5766 -0.216337 0)
(19.6344 -0.166414 0)
(19.679 -0.127397 0)
(19.7109 -0.0958342 0)
(19.7354 -0.071208 0)
(19.7532 -0.0536419 0)
(19.765 -0.0403247 0)
(19.7746 -0.0293493 0)
(19.7816 -0.0214647 0)
(19.7868 -0.0153649 0)
(19.7898 -0.00983282 0)
(19.7943 -0.00805593 0)
(19.7941 -0.00736748 0)
(19.7959 -0.00459634 0)
(19.7966 -0.00305288 0)
(19.797 -0.00210664 0)
(19.7974 -0.00147358 0)
(19.7977 -0.00104325 0)
(19.7979 -0.000740519 0)
(19.7981 -0.000529563 0)
(19.7983 -0.000375634 0)
(19.7984 -0.000228654 0)
(19.7986 6.8184e-05 0)
(19.7988 0.000534828 0)
(19.7991 0.000485996 0)
(19.7994 -0.000645173 0)
(19.7987 -0.000853802 0)
(19.7993 7.62193e-05 0)
(19.7985 0.00144292 0)
(19.8005 7.99957e-06 0)
(19.7983 -0.00149937 0)
(19.7991 -0.000301696 0)
(19.7989 -2.19118e-06 0)
(19.7991 0.000285248 0)
(19.7984 0.00150615 0)
(19.8004 4.29297e-05 0)
(19.7982 -0.0014432 0)
(19.799 -0.000195887 0)
(19.7988 -6.35313e-05 0)
(19.7986 -0.000107162 0)
(19.7986 -1.60102e-05 0)
(19.7987 4.86189e-05 0)
(19.7991 0.000280965 0)
(19.7984 0.00151037 0)
(19.8005 4.71029e-05 0)
(19.7983 -0.00148576 0)
(19.7992 -0.000249132 0)
(19.7992 0.000257632 0)
(19.7984 0.00152156 0)
(19.8004 0.000154958 0)
(19.7981 -0.00117401 0)
(19.7989 -6.23306e-05 0)
(19.7984 0.000150094 0)
(19.7982 0.000409287 0)
(19.798 0.000625867 0)
(19.7977 0.000915019 0)
(19.7974 0.00134737 0)
(19.7969 0.00201017 0)
(19.7962 0.00301047 0)
(19.795 0.00451995 0)
(19.7934 0.00681438 0)
(19.7909 0.0103152 0)
(19.7871 0.0156238 0)
(19.7811 0.0235378 0)
(19.7726 0.0355381 0)
(19.7594 0.0534301 0)
(19.7393 0.0801152 0)
(19.7088 0.119863 0)
(19.6625 0.178291 0)
(19.592 0.263718 0)
(19.4854 0.387107 0)
(19.3258 0.561872 0)
(19.0858 0.803121 0)
(18.7215 1.12891 0)
(18.2002 1.55808 0)
(17.5108 2.19199 0)
(17.3933 3.43118 0)
(16.6524 2.05158 0)
(-1.02534 -6.1553 0)
(2.02833 -5.96183 0)
(1.77089 -5.78544 0)
(1.95063 -5.54899 0)
(2.88622 -5.1949 0)
(3.72656 -4.81467 0)
(4.54383 -4.41667 0)
(5.40806 -3.99956 0)
(6.27162 -3.58711 0)
(7.05446 -3.18326 0)
(7.75139 -2.78684 0)
(8.35348 -2.40587 0)
(8.86157 -2.04765 0)
(9.28818 -1.72239 0)
(9.63943 -1.4325 0)
(9.92347 -1.1782 0)
(10.1505 -0.958853 0)
(10.3291 -0.772625 0)
(10.468 -0.617019 0)
(10.5753 -0.488003 0)
(10.6533 -0.383982 0)
(10.718 -0.299657 0)
(10.7643 -0.230236 0)
(10.7994 -0.176756 0)
(10.8257 -0.135004 0)
(10.8443 -0.101649 0)
(10.8591 -0.0755004 0)
(10.8714 -0.0565658 0)
(10.8755 -0.0423674 0)
(10.8811 -0.0309165 0)
(10.8849 -0.0226581 0)
(10.888 -0.016335 0)
(10.8894 -0.0107472 0)
(10.8975 -0.00847685 0)
(10.8922 -0.00734519 0)
(10.8929 -0.00466336 0)
(10.8929 -0.00314343 0)
(10.8931 -0.00218777 0)
(10.8933 -0.0015374 0)
(10.8934 -0.00109146 0)
(10.8935 -0.000777824 0)
(10.8936 -0.000561128 0)
(10.8937 -0.000409711 0)
(10.8939 -0.000283248 0)
(10.8941 -4.80523e-05 0)
(10.8949 0.00034393 0)
(10.8964 0.00035744 0)
(10.8974 -0.000530402 0)
(10.8944 -0.000704304 0)
(10.895 9.73161e-06 0)
(10.8942 0.00115755 0)
(10.9008 3.69832e-05 0)
(10.894 -0.00118758 0)
(10.8947 -0.000201162 0)
(10.8943 -4.23736e-06 0)
(10.8947 0.000167009 0)
(10.894 0.00120422 0)
(10.9007 6.627e-05 0)
(10.894 -0.00113801 0)
(10.8946 -0.000101826 0)
(10.8945 -2.02522e-05 0)
(10.894 -7.66825e-05 0)
(10.894 -1.99671e-05 0)
(10.8941 4.68084e-06 0)
(10.8946 0.000142115 0)
(10.894 0.00119144 0)
(10.9008 5.71641e-05 0)
(10.8942 -0.00118468 0)
(10.8948 -0.000172023 0)
(10.8948 0.000174419 0)
(10.8941 0.00124229 0)
(10.9005 0.000184089 0)
(10.8939 -0.000877249 0)
(10.8949 6.58727e-05 0)
(10.8939 0.000235777 0)
(10.8937 0.000463777 0)
(10.8935 0.000677928 0)
(10.8934 0.000978579 0)
(10.8931 0.00143433 0)
(10.8928 0.00213622 0)
(10.8924 0.00319726 0)
(10.8917 0.00480018 0)
(10.8907 0.00723954 0)
(10.8891 0.0109591 0)
(10.8868 0.0165996 0)
(10.8833 0.0250086 0)
(10.878 0.0377418 0)
(10.87 0.0568103 0)
(10.8575 0.0852913 0)
(10.8385 0.127749 0)
(10.8093 0.19033 0)
(10.7643 0.282011 0)
(10.695 0.414914 0)
(10.5895 0.604371 0)
(10.426 0.867891 0)
(10.1664 1.22422 0)
(9.80013 1.68655 0)
(9.34602 2.3193 0)
(9.15909 3.40609 0)
(9.76111 1.95205 0)
(-1.50041 -6.06543 0)
(0.741298 -5.94312 0)
(-0.394684 -5.78322 0)
(-1.0522 -5.58928 0)
(-0.891171 -5.29187 0)
(-0.774029 -4.94384 0)
(-0.61674 -4.56346 0)
(-0.336551 -4.15549 0)
(0.00223982 -3.73824 0)
(0.323337 -3.32058 0)
(0.61812 -2.90732 0)
(0.881823 -2.50809 0)
(1.09803 -2.13318 0)
(1.27916 -1.79291 0)
(1.42857 -1.48963 0)
(1.54718 -1.22371 0)
(1.64086 -0.994482 0)
(1.71049 -0.80021 0)
(1.76311 -0.637915 0)
(1.80267 -0.503661 0)
(1.82913 -0.395847 0)
(1.85053 -0.308493 0)
(1.86508 -0.236926 0)
(1.8754 -0.181564 0)
(1.88265 -0.138403 0)
(1.88726 -0.104354 0)
(1.89125 -0.0779082 0)
(1.90165 -0.0577728 0)
(1.89453 -0.0426877 0)
(1.89582 -0.0314863 0)
(1.89632 -0.0231466 0)
(1.89731 -0.0168722 0)
(1.89712 -0.0122176 0)
(1.91509 -0.00872882 0)
(1.89897 -0.00622466 0)
(1.89797 -0.0044271 0)
(1.89742 -0.00311898 0)
(1.89723 -0.00219898 0)
(1.89719 -0.00155317 0)
(1.89719 -0.00110594 0)
(1.89719 -0.000792209 0)
(1.89722 -0.000577031 0)
(1.89726 -0.000434214 0)
(1.89741 -0.000341684 0)
(1.89768 -0.000278775 0)
(1.89953 -0.000218257 0)
(1.90413 -0.000142368 0)
(1.90656 -8.52121e-05 0)
(1.8981 -7.67924e-05 0)
(1.89867 -7.93666e-05 0)
(1.89779 -3.3833e-05 0)
(1.91546 3.80922e-05 0)
(1.89802 3.27089e-05 0)
(1.89825 3.2463e-06 0)
(1.89776 1.36343e-07 0)
(1.89822 -2.38894e-05 0)
(1.89766 -3.94077e-06 0)
(1.91528 6.32792e-05 0)
(1.89792 6.05907e-05 0)
(1.89822 3.58138e-05 0)
(1.89866 3.85354e-05 0)
(1.89742 1.32922e-05 0)
(1.89744 -1.87053e-05 0)
(1.89753 -4.71105e-05 0)
(1.89816 -7.43792e-05 0)
(1.89766 -5.07058e-05 0)
(1.91557 2.32658e-05 0)
(1.8983 2.87119e-05 0)
(1.8984 1.41456e-05 0)
(1.89838 3.18187e-05 0)
(1.89771 8.22837e-05 0)
(1.91483 0.000182873 0)
(1.89782 0.000231601 0)
(1.89928 0.000282318 0)
(1.89747 0.000385929 0)
(1.89731 0.000514662 0)
(1.89718 0.000711979 0)
(1.89709 0.0010135 0)
(1.897 0.00147796 0)
(1.8969 0.00219448 0)
(1.89681 0.00328699 0)
(1.89654 0.00493759 0)
(1.89623 0.00744416 0)
(1.89574 0.0112657 0)
(1.89504 0.0170554 0)
(1.89396 0.0257105 0)
(1.89231 0.0388052 0)
(1.88974 0.058456 0)
(1.88561 0.0878527 0)
(1.87911 0.131717 0)
(1.86871 0.196529 0)
(1.8516 0.291683 0)
(1.8234 0.430106 0)
(1.77798 0.628717 0)
(1.70014 0.907338 0)
(1.56015 1.28561 0)
(1.3674 1.7729 0)
(1.1552 2.40071 0)
(0.818034 3.29279 0)
(1.94486 1.78697 0)
(-1.89236 -5.77741 0)
(-0.344235 -5.71699 0)
(-2.24222 -5.58618 0)
(-3.63691 -5.43981 0)
(-4.19343 -5.20107 0)
(-4.77201 -4.89238 0)
(-5.2591 -4.54023 0)
(-5.56582 -4.15483 0)
(-5.76143 -3.7514 0)
(-5.91287 -3.33957 0)
(-6.03175 -2.92766 0)
(-6.12607 -2.52673 0)
(-6.20825 -2.14927 0)
(-6.27757 -1.80636 0)
(-6.33735 -1.50036 0)
(-6.39017 -1.23187 0)
(-6.43532 -1.00025 0)
(-6.47647 -0.803986 0)
(-6.51285 -0.640218 0)
(-6.54204 -0.504883 0)
(-6.56937 -0.396293 0)
(-6.59145 -0.308504 0)
(-6.60921 -0.236877 0)
(-6.62388 -0.181227 0)
(-6.63539 -0.137937 0)
(-6.64506 -0.104118 0)
(-6.65203 -0.0781796 0)
(-6.65462 -0.0574633 0)
(-6.66193 -0.0418555 0)
(-6.66473 -0.03119 0)
(-6.66736 -0.0229947 0)
(-6.66875 -0.016936 0)
(-6.67079 -0.0133545 0)
(-6.66505 -0.00878532 0)
(-6.67169 -0.00495122 0)
(-6.67232 -0.00404934 0)
(-6.67318 -0.0030045 0)
(-6.67366 -0.00214848 0)
(-6.67391 -0.00152689 0)
(-6.67406 -0.0010911 0)
(-6.67416 -0.000786021 0)
(-6.67421 -0.000578804 0)
(-6.67421 -0.000448723 0)
(-6.67412 -0.000391528 0)
(-6.67394 -0.000499062 0)
(-6.67328 -0.000773363 0)
(-6.67175 -0.000653546 0)
(-6.67068 0.000340282 0)
(-6.67362 0.000557185 0)
(-6.67309 -0.000141073 0)
(-6.6741 -0.00121756 0)
(-6.66744 8.10748e-07 0)
(-6.67383 0.00124202 0)
(-6.67343 0.000233405 0)
(-6.67385 1.14215e-05 0)
(-6.67349 -0.000200734 0)
(-6.67423 -0.00120702 0)
(-6.66754 2.11574e-05 0)
(-6.67388 0.0012481 0)
(-6.67351 0.000198588 0)
(-6.67362 0.00010017 0)
(-6.67417 0.000104234 0)
(-6.67415 -1.52851e-05 0)
(-6.67407 -9.69795e-05 0)
(-6.67355 -0.000278346 0)
(-6.67424 -0.0012884 0)
(-6.66742 -5.08876e-05 0)
(-6.67371 0.00122937 0)
(-6.6733 0.000226099 0)
(-6.67332 -9.46332e-05 0)
(-6.67415 -0.00107371 0)
(-6.66765 0.00014179 0)
(-6.67392 0.00132589 0)
(-6.67306 0.000515283 0)
(-6.67403 0.000531883 0)
(-6.67414 0.000556083 0)
(-6.6742 0.000728393 0)
(-6.67419 0.00102163 0)
(-6.67414 0.00148179 0)
(-6.67404 0.00219298 0)
(-6.67385 0.00328673 0)
(-6.67361 0.0049392 0)
(-6.6732 0.00744397 0)
(-6.67261 0.0112615 0)
(-6.67165 0.0170387 0)
(-6.67023 0.0257006 0)
(-6.66811 0.0387998 0)
(-6.66501 0.058483 0)
(-6.66053 0.0879689 0)
(-6.65407 0.132009 0)
(-6.645 0.197224 0)
(-6.63303 0.293177 0)
(-6.6181 0.433237 0)
(-6.60031 0.635442 0)
(-6.58692 0.921538 0)
(-6.59644 1.31234 0)
(-6.59995 1.81495 0)
(-6.55411 2.43443 0)
(-6.99932 3.158 0)
(-5.49364 1.62537 0)
(-2.19728 -5.32874 0)
(-1.2019 -5.31807 0)
(-3.72029 -5.21826 0)
(-5.73052 -5.12069 0)
(-6.92377 -4.94431 0)
(-8.1233 -4.68604 0)
(-9.20667 -4.37536 0)
(-10.0712 -4.02426 0)
(-10.7828 -3.64537 0)
(-11.3962 -3.25086 0)
(-11.9223 -2.85238 0)
(-12.3694 -2.46243 0)
(-12.7495 -2.09456 0)
(-13.0696 -1.75988 0)
(-13.3381 -1.46103 0)
(-13.562 -1.19883 0)
(-13.7466 -0.972628 0)
(-13.8983 -0.781005 0)
(-14.022 -0.621469 0)
(-14.1179 -0.489578 0)
(-14.1995 -0.383529 0)
(-14.2648 -0.298306 0)
(-14.3137 -0.22903 0)
(-14.3533 -0.174969 0)
(-14.383 -0.133004 0)
(-14.407 -0.100414 0)
(-14.4244 -0.0755095 0)
(-14.4367 -0.0553496 0)
(-14.4473 -0.0401397 0)
(-14.454 -0.0299478 0)
(-14.4597 -0.0220962 0)
(-14.4635 -0.016376 0)
(-14.4672 -0.0131934 0)
(-14.4672 -0.00849814 0)
(-14.4705 -0.00439751 0)
(-14.4712 -0.00369923 0)
(-14.4722 -0.00280925 0)
(-14.473 -0.00202941 0)
(-14.4734 -0.00145307 0)
(-14.4737 -0.00104278 0)
(-14.4739 -0.00075563 0)
(-14.474 -0.000563528 0)
(-14.4741 -0.000449542 0)
(-14.474 -0.000419341 0)
(-14.474 -0.000589249 0)
(-14.4739 -0.000949462 0)
(-14.4736 -0.000800503 0)
(-14.4732 0.000429244 0)
(-14.4738 0.000721481 0)
(-14.4734 -0.000161771 0)
(-14.4744 -0.00149982 0)
(-14.4722 -2.88038e-05 0)
(-14.4742 0.00154366 0)
(-14.4736 0.000369281 0)
(-14.4739 2.48915e-05 0)
(-14.4737 -0.000291855 0)
(-14.4745 -0.00151149 0)
(-14.4723 -1.65633e-05 0)
(-14.4742 0.00154157 0)
(-14.4737 0.000325197 0)
(-14.4739 0.000150636 0)
(-14.4742 0.000138093 0)
(-14.4741 -1.51954e-05 0)
(-14.4741 -0.000135587 0)