/*--------------------------------*- C++ -*----------------------------------*\
| =========                 |                                                 |
| \\      /  F ield         | foam-extend: Open Source CFD                    |
|  \\    /   O peration     | Version:     5.0                                |
|   \\  /    A nd           | Web:         http://www.foam-extend.org         |
|    \\/     M anipulation  |                                                 |
\*---------------------------------------------------------------------------*/
FoamFile
{
    version     2.0;
    format      ascii;
    class       volVectorField;
    location    "0.045";
    object      bodyForce;
}
// * * * * * * * * * * * * * * * * * * * * * * * * * * * * * * * * * * * * * //

dimensions      [0 1 -2 0 0 0 0];

internalField   nonuniform List<vector> 
4000
(
(329.108 -0 0)
(1063.89 -0 0)
(1681.13 -0 0)
(2338.3 -0 0)
(2942.62 -0 0)
(3474.84 -0 0)
(3942.61 -0 0)
(4370.03 -0 0)
(4713.1 -0 0)
(5238.16 -0 0)
(5878.4 -0 0)
(6414.15 -0 0)
(6526.64 -0 0)
(6157.32 -0 0)
(5798.97 -0 0)
(5694.19 -0 0)
(5463.24 -0 0)
(5622.03 -0 0)
(5333.22 -0 0)
(5816.25 -0 0)
(6158.13 -0 0)
(6002.18 -0 0)
(5403.25 -0 0)
(5256.3 -0 0)
(5171.77 -0 0)
(5283.83 -0 0)
(6366.25 -0 0)
(7751.12 -0 0)
(7583.2 -0 0)
(6505.58 -0 0)
(5761.86 -0 0)
(5360.36 -0 0)
(5184.56 -0 0)
(5897.01 -0 0)
(6419.9 -0 0)
(6202.74 -0 0)
(6254.93 -0 0)
(6885.74 -0 0)
(6316.86 -0 0)
(5153.73 -0 0)
(5225.81 -0 0)
(5941.26 -0 0)
(5485.25 -0 0)
(6752.45 -0 0)
(6806.47 -0 0)
(6096.9 -0 0)
(4837.13 -0 0)
(4989.08 -0 0)
(6165.83 -0 0)
(6870.05 -0 0)
(6568.73 -0 0)
(5638.31 -0 0)
(5125.77 -0 0)
(6069.04 -0 0)
(5765.89 -0 0)
(5151.98 -0 0)
(4625.41 -0 0)
(5543.1 -0 0)
(5876.7 -0 0)
(5879.15 -0 0)
(6403.4 -0 0)
(6932.36 -0 0)
(5926.47 -0 0)
(5208.01 -0 0)
(5673.65 -0 0)
(5823.53 -0 0)
(5443.46 -0 0)
(5163.91 -0 0)
(5350.73 -0 0)
(5645.36 -0 0)
(6304.44 -0 0)
(6927.91 -0 0)
(7106.94 -0 0)
(6114.71 -0 0)
(5403.24 -0 0)
(5468.38 -0 0)
(5040.18 -0 0)
(5521.07 -0 0)
(5850.24 -0 0)
(6328.8 -0 0)
(6583.45 -0 0)
(6368.06 -0 0)
(5964.57 -0 0)
(5705.94 -0 0)
(5559.64 -0 0)
(5438.4 -0 0)
(5341.98 -0 0)
(5325.38 -0 0)
(5432.07 -0 0)
(5384.26 -0 0)
(5077.88 -0 0)
(4402.88 -0 0)
(3894.92 -0 0)
(3320.7 -0 0)
(2948.1 -0 0)
(2558.51 -0 0)
(2723.59 -0 0)
(2710.53 -0 0)
(2268.04 -0 0)
(1750.37 -0 0)
(889.305 -0 0)
(2847.76 -0 0)
(4455.48 -0 0)
(6059.13 -0 0)
(7547.5 -0 0)
(8901.65 -0 0)
(10118.4 -0 0)
(11233.8 -0 0)
(12181.9 -0 0)
(13348.8 -0 0)
(14533.4 -0 0)
(15580 -0 0)
(15509.4 -0 0)
(14775.5 -0 0)
(14926.3 -0 0)
(15135.9 -0 0)
(14154.8 -0 0)
(15190.4 -0 0)
(14702.3 -0 0)
(15689.5 -0 0)
(15179.9 -0 0)
(15474.6 -0 0)
(14885.3 -0 0)
(14886.7 -0 0)
(14859.8 -0 0)
(15112.9 -0 0)
(16836.8 -0 0)
(18630.4 -0 0)
(17947.9 -0 0)
(16646.4 -0 0)
(15685.3 -0 0)
(15113.9 -0 0)
(14747.2 -0 0)
(15891.6 -0 0)
(15929.2 -0 0)
(15976.2 -0 0)
(15712.9 -0 0)
(15851 -0 0)
(15774.5 -0 0)
(14394.2 -0 0)
(14602.7 -0 0)
(15625.6 -0 0)
(16202.6 -0 0)
(17169.3 -0 0)
(15398.2 -0 0)
(15078.6 -0 0)
(13723 -0 0)
(14171.8 -0 0)
(15995.3 -0 0)
(16685.5 -0 0)
(16577 -0 0)
(15480.6 -0 0)
(14572.5 -0 0)
(15711.8 -0 0)
(12328.1 -0 0)
(13021.7 -0 0)
(13210.5 -0 0)
(14911.9 -0 0)
(15044.1 -0 0)
(15303.3 -0 0)
(14520.3 -0 0)
(15094.4 -0 0)
(14766.4 -0 0)
(14303.8 -0 0)
(15268.8 -0 0)
(15708.9 -0 0)
(15253.4 -0 0)
(14845.9 -0 0)
(15000.7 -0 0)
(15341.8 -0 0)
(16329.8 -0 0)
(15903.3 -0 0)
(16959.8 -0 0)
(16006.6 -0 0)
(15088.3 -0 0)
(15071.5 -0 0)
(12604.3 -0 0)
(14745.6 -0 0)
(15424.8 -0 0)
(16435.5 -0 0)
(17057.7 -0 0)
(16873.8 -0 0)
(16208 -0 0)
(15473.8 -0 0)
(15432.5 -0 0)
(15330 -0 0)
(15085.1 -0 0)
(15128.1 -0 0)
(15030.5 -0 0)
(14835.1 -0 0)
(14312.2 -0 0)
(12269.5 -0 0)
(11840.7 -0 0)
(11026.8 -0 0)
(10240.2 -0 0)
(8908.66 -0 0)
(8413.18 -0 0)
(7557.53 -0 0)
(6631.07 -0 0)
(6336.47 -0 0)
(1216.96 -0 0)
(3999.74 -0 0)
(6255.38 -0 0)
(8439.24 -0 0)
(10471.9 -0 0)
(12348.8 -0 0)
(14057.5 -0 0)
(15624.8 -0 0)
(16962.9 -0 0)
(18399.5 -0 0)
(19382.2 -0 0)
(20454.8 -0 0)
(19361.7 -0 0)
(17705.2 -0 0)
(20281.1 -0 0)
(21384.7 -0 0)
(21781.4 -0 0)
(22296.6 -0 0)
(22148.3 -0 0)
(22865.9 -0 0)
(18447.8 -0 0)
(21009.5 -0 0)
(21543 -0 0)
(21996.6 -0 0)
(22203.3 -0 0)
(22488.4 -0 0)
(24085.9 -0 0)
(24152.3 -0 0)
(21474.7 -0 0)
(21718.4 -0 0)
(21819.9 -0 0)
(21847.8 -0 0)
(21316.2 -0 0)
(22795.3 -0 0)
(23049.3 -0 0)
(21355.3 -0 0)
(19616 -0 0)
(19370.4 -0 0)
(20258.8 -0 0)
(19898.6 -0 0)
(20693.7 -0 0)
(21838.9 -0 0)
(22531.2 -0 0)
(23178.7 -0 0)
(14972 -0 0)
(18642.6 -0 0)
(19035.1 -0 0)
(20383.6 -0 0)
(22058.9 -0 0)
(21725.8 -0 0)
(21913.6 -0 0)
(21867.2 -0 0)
(20794.8 -0 0)
(21440.7 -0 0)
(13120.7 -0 0)
(17158.4 -0 0)
(18918.5 -0 0)
(21201.7 -0 0)
(19366.7 -0 0)
(20483.9 -0 0)
(21032.5 -0 0)
(14757.4 -0 0)
(18402.7 -0 0)
(19697.1 -0 0)
(21534.2 -0 0)
(22463.6 -0 0)
(22289.4 -0 0)
(22046.2 -0 0)
(21844.2 -0 0)
(21702.9 -0 0)
(22348.5 -0 0)
(16790.2 -0 0)
(21196.9 -0 0)
(21543.4 -0 0)
(21368.6 -0 0)
(21443.5 -0 0)
(18637 -0 0)
(21314.1 -0 0)
(21202.8 -0 0)
(22742 -0 0)
(23689.5 -0 0)
(23760.7 -0 0)
(23363.6 -0 0)
(21508.6 -0 0)
(22524.1 -0 0)
(22747.4 -0 0)
(22755.7 -0 0)
(22686 -0 0)
(21731.1 -0 0)
(21391.7 -0 0)
(21014 -0 0)
(15999.5 -0 0)
(18080.9 -0 0)
(17881.7 -0 0)
(16989.2 -0 0)
(14930.1 -0 0)
(11798 -0 0)
(12211 -0 0)
(6960.49 -0 0)
(8821.42 -0 0)
(1309.71 -0 0)
(4576.08 -0 0)
(7176.54 -0 0)
(9685.46 -0 0)
(12037 -0 0)
(14229 -0 0)
(16244.9 -0 0)
(18104.8 -0 0)
(19663.6 -0 0)
(21167.4 -0 0)
(20890.4 -0 0)
(21833.7 -0 0)
(17212.4 -0 0)
(21972.6 -0 0)
(24186.3 -0 0)
(25546.8 -0 0)
(26463.2 -0 0)
(27032.4 -0 0)
(27074.4 -0 0)
(27669.1 -0 0)
(17899.3 -0 0)
(24359.1 -0 0)
(26031.6 -0 0)
(26873.3 -0 0)
(27211.9 -0 0)
(27387 -0 0)
(28689.2 -0 0)
(22722.2 -0 0)
(17920 -0 0)
(23185.3 -0 0)
(25196.5 -0 0)
(26012 -0 0)
(26253.2 -0 0)
(26927.9 -0 0)
(25009 -0 0)
(20593.3 -0 0)
(23675.1 -0 0)
(13701 -0 0)
(20434 -0 0)
(22331.2 -0 0)
(23684.4 -0 0)
(24018.1 -0 0)
(24821.2 -0 0)
(25270.4 -0 0)
(12260 -0 0)
(19800.8 -0 0)
(22020.3 -0 0)
(24234.7 -0 0)
(24133.4 -0 0)
(25616.7 -0 0)
(26179.7 -0 0)
(25824.2 -0 0)
(25569.1 -0 0)
(22601.7 -0 0)
(13844.8 -0 0)
(20412.7 -0 0)
(23029.8 -0 0)
(24939.6 -0 0)
(15447.9 -0 0)
(21902.1 -0 0)
(22101 -0 0)
(13130.2 -0 0)
(20168.1 -0 0)
(22988.2 -0 0)
(25248 -0 0)
(26534.8 -0 0)
(26656.6 -0 0)
(26628.2 -0 0)
(25005.7 -0 0)
(23750.8 -0 0)
(24199.3 -0 0)
(19186.7 -0 0)
(22843.1 -0 0)
(24125.7 -0 0)
(24860.4 -0 0)
(25974.7 -0 0)
(25401.5 -0 0)
(26200 -0 0)
(21922.5 -0 0)
(25857.9 -0 0)
(27109.9 -0 0)
(27596 -0 0)
(27619 -0 0)
(27433.3 -0 0)
(27714 -0 0)
(27911.9 -0 0)
(27960 -0 0)
(27779.5 -0 0)
(23985.3 -0 0)
(24270.7 -0 0)
(24840.9 -0 0)
(23830.4 -0 0)
(23720 -0 0)
(23141.5 -0 0)
(21530 -0 0)
(19718.7 -0 0)
(12742 -0 0)
(11771 -0 0)
(11414.7 -0 0)
(10912.5 -0 0)
(1168.11 -0 0)
(4646.37 -0 0)
(7318.44 -0 0)
(9924.73 -0 0)
(12397.3 -0 0)
(14721.4 -0 0)
(16875.7 -0 0)
(18883.8 -0 0)
(20504.2 -0 0)
(21817.2 -0 0)
(21737.1 -0 0)
(18986.8 -0 0)
(22411.7 -0 0)
(25033.8 -0 0)
(26593 -0 0)
(27785.9 -0 0)
(28753.7 -0 0)
(29384.9 -0 0)
(29598.4 -0 0)
(30274.2 -0 0)
(28461 -0 0)
(29170.6 -0 0)
(29394.8 -0 0)
(29763.4 -0 0)
(29864.9 -0 0)
(29947.6 -0 0)
(30169 -0 0)
(16931.5 -0 0)
(22414.1 -0 0)
(25338.7 -0 0)
(27201.5 -0 0)
(28020.1 -0 0)
(28393.4 -0 0)
(26890.1 -0 0)
(17216.7 -0 0)
(22576.8 -0 0)
(25418 -0 0)
(12427 -0 0)
(20639.1 -0 0)
(23454 -0 0)
(23286.3 -0 0)
(19487.3 -0 0)
(22059.9 -0 0)
(25163.4 -0 0)
(13889.7 -0 0)
(21714.3 -0 0)
(24205.7 -0 0)
(26385 -0 0)
(18188.3 -0 0)
(23325.2 -0 0)
(25949.8 -0 0)
(26625.1 -0 0)
(27259.7 -0 0)
(17251.1 -0 0)
(22343.9 -0 0)
(24801.8 -0 0)
(26391.8 -0 0)
(25389.9 -0 0)
(23781.8 -0 0)
(24095.5 -0 0)
(14054.1 -0 0)
(20370.2 -0 0)
(23396.4 -0 0)
(25442.8 -0 0)
(26140.2 -0 0)
(27685 -0 0)
(28224 -0 0)
(28573.5 -0 0)
(28348.7 -0 0)
(18099.3 -0 0)
(24204.4 -0 0)
(20872.1 -0 0)
(19740 -0 0)
(23759.7 -0 0)
(25794.2 -0 0)
(27733.5 -0 0)
(26551.4 -0 0)
(28628.6 -0 0)
(22708.7 -0 0)
(27519 -0 0)
(26734.6 -0 0)
(28090.8 -0 0)
(28930.3 -0 0)
(29702.8 -0 0)
(30193.6 -0 0)
(30513.3 -0 0)
(30504.3 -0 0)
(30238.9 -0 0)
(29284.4 -0 0)
(22224.8 -0 0)
(26314.6 -0 0)
(27006.1 -0 0)
(26797.6 -0 0)
(26047.9 -0 0)
(23683.1 -0 0)
(20507.7 -0 0)
(19153.4 -0 0)
(6838.21 -0 0)
(11237.8 -0 0)
(11299 -0 0)
(843.739 -0 0)
(4270.16 -0 0)
(6773.94 -0 0)
(9243.3 -0 0)
(11643.5 -0 0)
(13919.2 -0 0)
(16044.2 -0 0)
(18056.5 -0 0)
(19555.5 -0 0)
(21316.4 -0 0)
(17449.3 -0 0)
(21415.9 -0 0)
(23985.9 -0 0)
(25794 -0 0)
(26927.2 -0 0)
(27865.8 -0 0)
(28718.5 -0 0)
(29332.1 -0 0)
(29649 -0 0)
(30316.2 -0 0)
(30588.7 -0 0)
(30303.3 -0 0)
(30111.2 -0 0)
(30181 -0 0)
(30044.1 -0 0)
(30007.5 -0 0)
(26583.7 -0 0)
(15750.8 -0 0)
(23309.7 -0 0)
(25810 -0 0)
(27172 -0 0)
(27787.6 -0 0)
(28082.9 -0 0)
(18604.6 -0 0)
(20961.3 -0 0)
(23805.8 -0 0)
(26281.4 -0 0)
(14711.8 -0 0)
(22051.5 -0 0)
(24231.4 -0 0)
(16404.5 -0 0)
(22531.5 -0 0)
(12400.8 -0 0)
(21741.1 -0 0)
(22657.2 -0 0)
(25060.4 -0 0)
(25929.8 -0 0)
(27333.2 -0 0)
(25934.1 -0 0)
(16264.4 -0 0)
(22269.6 -0 0)
(24875.3 -0 0)
(26673 -0 0)
(24183.4 -0 0)
(26713.4 -0 0)
(27221.2 -0 0)
(27782.6 -0 0)
(16736.6 -0 0)
(23358.8 -0 0)
(25630.3 -0 0)
(14718.2 -0 0)
(22621.7 -0 0)
(24727.2 -0 0)
(26115 -0 0)
(20962.3 -0 0)
(25353 -0 0)
(27043.5 -0 0)
(28059.5 -0 0)
(27584.9 -0 0)
(26249.3 -0 0)
(23849.5 -0 0)
(24009.3 -0 0)
(14761.5 -0 0)
(22244.5 -0 0)
(25080.3 -0 0)
(27386.9 -0 0)
(28310.3 -0 0)
(29386.5 -0 0)
(28376.4 -0 0)
(28498.6 -0 0)
(18001 -0 0)
(25154.8 -0 0)
(27726.5 -0 0)
(29298.6 -0 0)
(30084.6 -0 0)
(30542.4 -0 0)
(30019.7 -0 0)
(30102.4 -0 0)
(29898.4 -0 0)
(28190.3 -0 0)
(28325.5 -0 0)
(28054.2 -0 0)
(27449.4 -0 0)
(26381 -0 0)
(24307.7 -0 0)
(21406.9 -0 0)
(20336 -0 0)
(6113.95 -0 0)
(10642.4 -0 0)
(10622.2 -0 0)
(422.253 -0 0)
(3561.81 -0 0)
(5722.36 -0 0)
(7856.07 -0 0)
(10042.1 -0 0)
(12122.9 -0 0)
(14078.6 -0 0)
(15967.1 -0 0)
(17054.1 -0 0)
(19131.7 -0 0)
(16932.7 -0 0)
(20852.8 -0 0)
(22959.7 -0 0)
(24333.6 -0 0)
(25174.9 -0 0)
(25887.5 -0 0)
(26581.4 -0 0)
(27118.2 -0 0)
(27454 -0 0)
(28045.6 -0 0)
(28755.7 -0 0)
(27459.4 -0 0)
(28002.8 -0 0)
(28136.4 -0 0)
(27868.7 -0 0)
(27734 -0 0)
(17251.8 -0 0)
(21719.2 -0 0)
(24544.1 -0 0)
(24269 -0 0)
(24174.5 -0 0)
(25162.7 -0 0)
(25797.9 -0 0)
(24461.6 -0 0)
(15570.8 -0 0)
(22222.9 -0 0)
(25030.5 -0 0)
(23777.3 -0 0)
(24561.6 -0 0)
(24512.1 -0 0)
(22626.6 -0 0)
(24475.8 -0 0)
(11483 -0 0)
(20253.6 -0 0)
(23482.1 -0 0)
(25208.3 -0 0)
(25474 -0 0)
(26275.8 -0 0)
(24268 -0 0)
(19654.7 -0 0)
(16941.7 -0 0)
(22023 -0 0)
(24510.9 -0 0)
(25744.1 -0 0)
(27041.3 -0 0)
(26772 -0 0)
(26620.2 -0 0)
(18571.3 -0 0)
(23375.8 -0 0)
(25370.5 -0 0)
(23206.9 -0 0)
(23583.9 -0 0)
(24114.2 -0 0)
(24791.3 -0 0)
(15903.4 -0 0)
(21750.7 -0 0)
(24243 -0 0)
(25642.1 -0 0)
(26570.7 -0 0)
(26625.5 -0 0)
(26221.9 -0 0)
(17268.4 -0 0)
(20535.6 -0 0)
(22955.4 -0 0)
(23323.2 -0 0)
(25181.1 -0 0)
(26625.7 -0 0)
(27583.7 -0 0)
(27871.7 -0 0)
(26728.6 -0 0)
(20747 -0 0)
(24384.5 -0 0)
(25885.5 -0 0)
(27212.2 -0 0)
(27870.2 -0 0)
(28280.8 -0 0)
(25523 -0 0)
(27244.8 -0 0)
(27844.9 -0 0)
(27633.2 -0 0)
(27264.6 -0 0)
(26392.4 -0 0)
(25577.2 -0 0)
(23732.9 -0 0)
(20321.2 -0 0)
(19615.7 -0 0)
(18016.4 -0 0)
(6864.44 -0 0)
(10028.8 -0 0)
(9137.74 -0 0)
(-22.8018 0 0)
(2654.75 -0 0)
(4355.68 -0 0)
(5985.37 -0 0)
(7865.43 -0 0)
(9634.66 -0 0)
(11310.6 -0 0)
(12976.3 -0 0)
(13034.5 -0 0)
(15795.5 -0 0)
(16676 -0 0)
(18678.4 -0 0)
(20098 -0 0)
(21032.9 -0 0)
(21636.7 -0 0)
(22148.3 -0 0)
(22674.1 -0 0)
(23097.1 -0 0)
(23394.3 -0 0)
(23885 -0 0)
(24597.1 -0 0)
(24367.7 -0 0)
(24217.9 -0 0)
(24155.9 -0 0)
(23824.1 -0 0)
(23919.1 -0 0)
(17965.2 -0 0)
(21924 -0 0)
(23129.8 -0 0)
(22252 -0 0)
(15840.5 -0 0)
(20406.7 -0 0)
(21819.9 -0 0)
(22876.9 -0 0)
(21203 -0 0)
(21964.4 -0 0)
(22042.4 -0 0)
(22609 -0 0)
(22889.6 -0 0)
(22054.9 -0 0)
(21699.8 -0 0)
(22864.8 -0 0)
(14332.7 -0 0)
(19704.4 -0 0)
(21846.4 -0 0)
(22846.9 -0 0)
(22734.3 -0 0)
(23137.2 -0 0)
(17275.6 -0 0)
(20751.5 -0 0)
(17830.1 -0 0)
(20028.8 -0 0)
(21509.7 -0 0)
(23122.9 -0 0)
(24059.5 -0 0)
(23500.8 -0 0)
(22279.9 -0 0)
(21705.7 -0 0)
(22629.2 -0 0)
(23283.2 -0 0)
(23783.9 -0 0)
(16317.5 -0 0)
(20512.5 -0 0)
(21549 -0 0)
(14605.2 -0 0)
(17540.6 -0 0)
(20615.3 -0 0)
(21995.5 -0 0)
(23027.4 -0 0)
(23007.1 -0 0)
(23610.4 -0 0)
(22103.8 -0 0)
(19921.4 -0 0)
(21427 -0 0)
(17564.7 -0 0)
(20600.6 -0 0)
(22782.7 -0 0)
(23726 -0 0)
(24305.4 -0 0)
(18381.7 -0 0)
(21135.6 -0 0)
(22473.4 -0 0)
(22360.5 -0 0)
(23474.5 -0 0)
(23799.2 -0 0)
(24125.9 -0 0)
(22482.6 -0 0)
(23398.3 -0 0)
(23846.4 -0 0)
(23973.6 -0 0)
(23487.3 -0 0)
(21904.2 -0 0)
(21511.7 -0 0)
(19665.3 -0 0)
(13793.4 -0 0)
(15204.7 -0 0)
(10879.2 -0 0)
(9926.94 -0 0)
(9219.27 -0 0)
(6680.59 -0 0)
(-449.543 0 0)
(1665.55 -0 0)
(2833.19 -0 0)
(3819.38 -0 0)
(5357.93 -0 0)
(6728.26 -0 0)
(8045.77 -0 0)
(9411.41 -0 0)
(10232.6 -0 0)
(11949.5 -0 0)
(13359.7 -0 0)
(14790.1 -0 0)
(15800.4 -0 0)
(16304.5 -0 0)
(16755 -0 0)
(17080.7 -0 0)
(17430.1 -0 0)
(17706.4 -0 0)
(17931.9 -0 0)
(18307.6 -0 0)
(18893.8 -0 0)
(18925.3 -0 0)
(18697 -0 0)
(18570 -0 0)
(18276.8 -0 0)
(18513.1 -0 0)
(17657.7 -0 0)
(19128 -0 0)
(19292.6 -0 0)
(16096.4 -0 0)
(15765.9 -0 0)
(16575.9 -0 0)
(17058.9 -0 0)
(18323.7 -0 0)
(18727.4 -0 0)
(18603.9 -0 0)
(18610.7 -0 0)
(16053.2 -0 0)
(18153.2 -0 0)
(17684.9 -0 0)
(17593.2 -0 0)
(18712 -0 0)
(16958.9 -0 0)
(17900.9 -0 0)
(18310.4 -0 0)
(18469.7 -0 0)
(18113.3 -0 0)
(18359.9 -0 0)
(17177.3 -0 0)
(18330 -0 0)
(14183.8 -0 0)
(16343.8 -0 0)
(17134.8 -0 0)
(18345.4 -0 0)
(18903.1 -0 0)
(17944.6 -0 0)
(18218 -0 0)
(18707.5 -0 0)
(18907.5 -0 0)
(19041.2 -0 0)
(20030.3 -0 0)
(17958 -0 0)
(17556.5 -0 0)
(17343.1 -0 0)
(15585.4 -0 0)
(16170.2 -0 0)
(16782.2 -0 0)
(17231.3 -0 0)
(17841.7 -0 0)
(16121.8 -0 0)
(18081.3 -0 0)
(19190.3 -0 0)
(18742.6 -0 0)
(18149 -0 0)
(16398.8 -0 0)
(17142.4 -0 0)
(18049.4 -0 0)
(18514.3 -0 0)
(19055.7 -0 0)
(17738.2 -0 0)
(18366.7 -0 0)
(18487.3 -0 0)
(18200.3 -0 0)
(18405.3 -0 0)
(18011.9 -0 0)
(18403 -0 0)
(18070.5 -0 0)
(18186 -0 0)
(18337.4 -0 0)
(18443.3 -0 0)
(17602.7 -0 0)
(16886.1 -0 0)
(16055.9 -0 0)
(12257.3 -0 0)
(11743.6 -0 0)
(11712.5 -0 0)
(8872.75 -0 0)
(8679.4 -0 0)
(6739.19 -0 0)
(2748.08 -0 0)
(-838.843 0 0)
(679.244 -0 0)
(1270.33 -0 0)
(1494.96 -0 0)
(2727.98 -0 0)
(3636.43 -0 0)
(4534.13 -0 0)
(5508.72 -0 0)
(6337.19 -0 0)
(7545.1 -0 0)
(8843.08 -0 0)
(9892.74 -0 0)
(10612.9 -0 0)
(10557.9 -0 0)
(11034.4 -0 0)
(11161.8 -0 0)
(11315 -0 0)
(11404.1 -0 0)
(11557.1 -0 0)
(11810.9 -0 0)
(12261.2 -0 0)
(12284.7 -0 0)
(12049 -0 0)
(11883.8 -0 0)
(11656.5 -0 0)
(11944.7 -0 0)
(12511.5 -0 0)
(13655 -0 0)
(13582.2 -0 0)
(12130.3 -0 0)
(11629.9 -0 0)
(11246.6 -0 0)
(11143.2 -0 0)
(12155.7 -0 0)
(13109.6 -0 0)
(12990.9 -0 0)
(12910.2 -0 0)
(12543.4 -0 0)
(12635.8 -0 0)
(11809.2 -0 0)
(11709.7 -0 0)
(12781.8 -0 0)
(13088.5 -0 0)
(13245.2 -0 0)
(12847.8 -0 0)
(12477 -0 0)
(12042.1 -0 0)
(12223.3 -0 0)
(12361.7 -0 0)
(12953.2 -0 0)
(11709.7 -0 0)
(11587.3 -0 0)
(11541.9 -0 0)
(12220.2 -0 0)
(12385.4 -0 0)
(11676.1 -0 0)
(12201.2 -0 0)
(13024.3 -0 0)
(13109.3 -0 0)
(13127.5 -0 0)
(14119.8 -0 0)
(13691.8 -0 0)
(12469.7 -0 0)
(11653.4 -0 0)
(11362.1 -0 0)
(11587.9 -0 0)
(11375.2 -0 0)
(11250.7 -0 0)
(11508.3 -0 0)
(11133.4 -0 0)
(12079 -0 0)
(13542.6 -0 0)
(13719.8 -0 0)
(12653 -0 0)
(11466.3 -0 0)
(11689.3 -0 0)
(12047.9 -0 0)
(12161.8 -0 0)
(12578.2 -0 0)
(12594.7 -0 0)
(12917.7 -0 0)
(12636.3 -0 0)
(12190.2 -0 0)
(12027.1 -0 0)
(11724 -0 0)
(11784.2 -0 0)
(11705.6 -0 0)
(11664.6 -0 0)
(11687.6 -0 0)
(11757.3 -0 0)
(11301 -0 0)
(10359 -0 0)
(9315.29 -0 0)
(7490.17 -0 0)
(7268.08 -0 0)
(7002.57 -0 0)
(5873.42 -0 0)
(5263.38 -0 0)
(2593.82 -0 0)
(-2687.76 0 0)
(-1193.15 0 0)
(-275.061 0 0)
(-290.696 0 0)
(-446.56 0 0)
(41.4799 -0 0)
(422.719 -0 0)
(838.895 -0 0)
(1374.11 -0 0)
(1921.23 -0 0)
(2704.31 -0 0)
(3682.73 -0 0)
(4322.64 -0 0)
(4803.9 -0 0)
(4757.27 -0 0)
(4756.34 -0 0)
(4629.79 -0 0)
(4578.37 -0 0)
(4435.31 -0 0)
(4582.04 -0 0)
(4738.12 -0 0)
(5109.12 -0 0)
(5006.53 -0 0)
(4765.4 -0 0)
(4489.32 -0 0)
(4335.51 -0 0)
(4606.81 -0 0)
(5626.88 -0 0)
(6688.42 -0 0)
(6534.46 -0 0)
(5745.81 -0 0)
(5283.18 -0 0)
(4486.83 -0 0)
(4198.96 -0 0)
(4946.34 -0 0)
(6022.12 -0 0)
(6014.04 -0 0)
(6066.67 -0 0)
(6251.17 -0 0)
(5823.97 -0 0)
(4845.04 -0 0)
(4727.87 -0 0)
(5720.25 -0 0)
(6687.39 -0 0)
(6727.95 -0 0)
(5980.95 -0 0)
(5326.64 -0 0)
(4916.59 -0 0)
(5106.52 -0 0)
(5593.91 -0 0)
(6329.87 -0 0)
(5851.3 -0 0)
(5206.65 -0 0)
(4812.83 -0 0)
(5162.33 -0 0)
(5012.92 -0 0)
(4122.02 -0 0)
(5065.91 -0 0)
(5995.9 -0 0)
(6033.11 -0 0)
(6056.24 -0 0)
(6968.44 -0 0)
(7072.74 -0 0)
(5802.26 -0 0)
(4784.13 -0 0)
(4908.88 -0 0)
(5169.33 -0 0)
(4620.19 -0 0)
(4280.45 -0 0)
(4323.6 -0 0)
(4310.21 -0 0)
(4804.66 -0 0)
(6525.84 -0 0)
(6921.76 -0 0)
(5670.61 -0 0)
(4747.82 -0 0)
(4889.85 -0 0)
(5033.69 -0 0)
(4959.13 -0 0)
(5238.83 -0 0)
(5647.86 -0 0)
(5938.3 -0 0)
(5458.58 -0 0)
(5021.43 -0 0)
(4691.26 -0 0)
(4397.05 -0 0)
(4354.65 -0 0)
(4349.77 -0 0)
(4305.33 -0 0)
(4302.87 -0 0)
(4391.26 -0 0)
(4093.43 -0 0)
(3503.41 -0 0)
(2923.17 -0 0)
(2101.25 -0 0)
(1951.5 -0 0)
(1409.27 -0 0)
(1281.79 -0 0)
(716.366 -0 0)
(-2572.28 0 0)
(-8572.71 0 0)
(-1519.67 0 0)
(-1192.57 0 0)
(-1794.97 0 0)
(-2433.01 0 0)
(-2559.45 0 0)
(-2714.5 0 0)
(-2798.53 0 0)
(-2734.45 0 0)
(-2582.86 0 0)
(-2235.84 0 0)
(-1680.27 0 0)
(-1344.27 0 0)
(-1262.58 0 0)
(-1490.71 0 0)
(-1808.74 0 0)
(-2161.62 0 0)
(-2402.73 0 0)
(-2584.84 0 0)
(-2575.01 0 0)
(-2451.75 0 0)
(-2041.08 0 0)
(-2347.96 0 0)
(-2547.24 0 0)
(-3072.11 0 0)
(-3182.5 0 0)
(-2966.3 0 0)
(-1868.85 0 0)
(-996.03 0 0)
(-1153.16 0 0)
(-1650.35 0 0)
(-2047.51 0 0)
(-2755.6 0 0)
(-3145.74 0 0)
(-2516.65 0 0)
(-1653.67 0 0)
(-1540.09 0 0)
(-1411.42 0 0)
(-1086.06 0 0)
(-1612.78 0 0)
(-2516.58 0 0)
(-2575.86 0 0)
(-1681.23 0 0)
(-666.492 0 0)
(-615.595 0 0)
(-1437.04 0 0)
(-2044.57 0 0)
(-2651.55 0 0)
(-2423.72 0 0)
(-1921.17 0 0)
(-1218.89 0 0)
(-1362.95 0 0)
(-2016.74 0 0)
(-2436.17 0 0)
(-2235.23 0 0)
(-2539.04 0 0)
(-2988.14 0 0)
(-2389.93 0 0)
(-1400.57 0 0)
(-1578.42 0 0)
(-1485.18 0 0)
(-695.022 0 0)
(-419.258 0 0)
(-1475.03 0 0)
(-2426.26 0 0)
(-2175.54 0 0)
(-1929.87 0 0)
(-2641.72 0 0)
(-3108.78 0 0)
(-3160.17 0 0)
(-3057.72 0 0)
(-2454.04 0 0)
(-1022.45 0 0)
(-546.158 0 0)
(-1691.34 0 0)
(-2480.22 0 0)
(-2427.1 0 0)
(-2418.52 0 0)
(-2530.39 0 0)
(-2426.82 0 0)
(-1895.62 0 0)
(-1591 0 0)
(-2216.84 0 0)
(-2664.29 0 0)
(-3053.5 0 0)
(-3320.23 0 0)
(-3383.77 0 0)
(-3346.39 0 0)
(-3335.71 0 0)
(-3295.87 0 0)
(-3170.39 0 0)
(-3276.36 0 0)
(-3591.87 0 0)
(-3846.57 0 0)
(-4030.47 0 0)
(-3798.81 0 0)
(-4086.09 0 0)
(-3855.87 0 0)
(-4244.96 0 0)
(-7796.78 0 0)
(-12075.1 0 0)
(-1820.49 0 0)
(-2061.16 0 0)
(-3212.26 0 0)
(-4345.08 0 0)
(-5027.02 0 0)
(-5704.31 0 0)
(-6281.79 0 0)
(-6690.79 0 0)
(-6971.32 0 0)
(-7062.87 0 0)
(-6961.11 0 0)
(-6995.23 0 0)
(-7262.73 0 0)
(-7730.97 0 0)
(-8300.6 0 0)
(-8849.8 0 0)
(-9256.54 0 0)
(-9514.66 0 0)
(-9547.31 0 0)
(-9332.76 0 0)
(-8554.69 0 0)
(-9184.86 0 0)
(-9190.52 0 0)
(-10453.8 0 0)
(-10600.5 0 0)
(-10371.5 0 0)
(-9388.78 0 0)
(-8800.51 0 0)
(-8891.73 0 0)
(-9221.53 0 0)
(-9556.94 0 0)
(-10073.8 0 0)
(-10359.7 0 0)
(-9801.3 0 0)
(-9348.74 0 0)
(-9106.02 0 0)
(-8895.59 0 0)
(-8535.98 0 0)
(-8931.94 0 0)
(-9592.57 0 0)
(-9540.17 0 0)
(-8919.4 0 0)
(-8165.39 0 0)
(-8004.33 0 0)
(-8622.47 0 0)
(-8900.34 0 0)
(-10172.7 0 0)
(-9924.61 0 0)
(-9542.97 0 0)
(-8950.29 0 0)
(-8925.48 0 0)
(-9387.72 0 0)
(-9621.51 0 0)
(-9360.04 0 0)
(-9552.93 0 0)
(-9588.81 0 0)
(-9733.28 0 0)
(-8634.58 0 0)
(-9189.61 0 0)
(-9000.65 0 0)
(-8304.54 0 0)
(-7907.42 0 0)
(-8553.13 0 0)
(-9173.33 0 0)
(-8790.76 0 0)
(-8727.29 0 0)
(-9949.06 0 0)
(-10391.6 0 0)
(-10415.9 0 0)
(-10242.5 0 0)
(-9617.06 0 0)
(-8535.7 0 0)
(-7928.34 0 0)
(-8776.56 0 0)
(-9246.24 0 0)
(-9531.7 0 0)
(-9770.7 0 0)
(-9716.68 0 0)
(-9961.48 0 0)
(-9343.17 0 0)
(-8842.36 0 0)
(-9933.32 0 0)
(-10338.9 0 0)
(-10725.3 0 0)
(-10944.9 0 0)
(-10983 0 0)
(-10903.3 0 0)
(-10793.9 0 0)
(-10688.2 0 0)
(-10478.1 0 0)
(-10428.7 0 0)
(-10521.3 0 0)
(-10449.6 0 0)
(-10186.2 0 0)
(-9758.32 0 0)
(-9467.45 0 0)
(-8834.26 0 0)
(-8742.28 0 0)
(-11762.4 0 0)
(-11976.1 0 0)
(-2093.22 0 0)
(-2846.57 0 0)
(-4488.43 0 0)
(-6077.71 0 0)
(-7253.29 0 0)
(-8411.73 0 0)
(-9451.09 0 0)
(-10310 0 0)
(-11019.3 0 0)
(-11538.9 0 0)
(-11877.9 0 0)
(-12290.5 0 0)
(-12881.7 0 0)
(-13608.1 0 0)
(-14402.1 0 0)
(-15132.6 0 0)
(-15690.6 0 0)
(-16040 0 0)
(-16097.7 0 0)
(-15682.2 0 0)
(-13459.9 0 0)
(-15737.5 0 0)
(-14218.9 0 0)
(-17541.5 0 0)
(-17513.5 0 0)
(-17251.2 0 0)
(-16267.4 0 0)
(-16101 0 0)
(-16139.4 0 0)
(-16356.1 0 0)
(-16670.9 0 0)
(-16960 0 0)
(-16960.4 0 0)
(-16105.1 0 0)
(-16549.5 0 0)
(-16198 0 0)
(-15871.6 0 0)
(-15377 0 0)
(-15416.4 0 0)
(-15683.2 0 0)
(-15320.4 0 0)
(-15257.1 0 0)
(-15191.1 0 0)
(-14806.7 0 0)
(-14864.6 0 0)
(-13676.8 0 0)
(-17251.5 0 0)
(-17016.1 0 0)
(-16785.3 0 0)
(-16287.9 0 0)
(-16156.7 0 0)
(-16364.6 0 0)
(-16277.9 0 0)
(-15662.1 0 0)
(-15265.2 0 0)
(-14113.9 0 0)
(-16548.9 0 0)
(-14767.2 0 0)
(-16359.3 0 0)
(-16068.9 0 0)
(-15345.6 0 0)
(-14704.4 0 0)
(-14754.3 0 0)
(-14635.7 0 0)
(-13577.2 0 0)
(-13804.7 0 0)
(-16811 0 0)
(-17154.1 0 0)
(-16985.9 0 0)
(-16605.8 0 0)
(-15821.2 0 0)
(-15450.4 0 0)
(-14550.3 0 0)
(-14806.6 0 0)
(-14238.1 0 0)
(-15575.5 0 0)
(-16626.1 0 0)
(-15784.9 0 0)
(-17037.5 0 0)
(-16185.5 0 0)
(-14554.7 0 0)
(-17186 0 0)
(-17564.8 0 0)
(-17912.6 0 0)
(-18079.3 0 0)
(-18072.1 0 0)
(-17946.9 0 0)
(-17659.6 0 0)
(-17484.6 0 0)
(-17104.1 0 0)
(-17150.1 0 0)
(-16921.9 0 0)
(-16536.3 0 0)
(-15915.8 0 0)
(-15161.9 0 0)
(-14316.3 0 0)
(-13153.7 0 0)
(-12284 0 0)
(-14123.6 0 0)
(-10280.2 0 0)
(-2328.74 0 0)
(-3518.1 0 0)
(-5583.15 0 0)
(-7572.47 0 0)
(-9175.89 0 0)
(-10756.7 0 0)
(-12204.7 0 0)
(-13463.6 0 0)
(-14559.7 0 0)
(-15462.7 0 0)
(-16188.8 0 0)
(-16939.5 0 0)
(-17815.9 0 0)
(-18783.7 0 0)
(-19779.8 0 0)
(-20681.1 0 0)
(-21391.4 0 0)
(-21878 0 0)
(-22108.1 0 0)
(-22067.3 0 0)
(-21541.4 0 0)
(-21691.2 0 0)
(-18926 0 0)
(-23784.4 0 0)
(-23658.5 0 0)
(-23258.5 0 0)
(-21565.1 0 0)
(-22682.1 0 0)
(-22570.7 0 0)
(-22403.5 0 0)
(-23048.7 0 0)
(-23061.8 0 0)
(-22555.5 0 0)
(-19774.8 0 0)
(-22868.9 0 0)
(-22434.3 0 0)
(-21908.4 0 0)
(-21079 0 0)
(-20342.3 0 0)
(-19910.7 0 0)
(-18264.2 0 0)
(-19338 0 0)
(-21392.3 0 0)
(-20773.4 0 0)
(-20108.8 0 0)
(-16793.8 0 0)
(-23531.2 0 0)
(-23316.4 0 0)
(-23199.5 0 0)
(-22769.1 0 0)
(-22562 0 0)
(-22527.7 0 0)
(-22093.6 0 0)
(-20931.1 0 0)
(-19225.9 0 0)
(-13725 0 0)
(-22937.4 0 0)
(-22174.3 0 0)
(-22713.5 0 0)
(-22288.1 0 0)
(-21428.6 0 0)
(-20376.9 0 0)
(-19662.4 0 0)
(-17914 0 0)
(-14342 0 0)
(-22075.4 0 0)
(-22935.3 0 0)
(-23056.1 0 0)
(-22482.6 0 0)
(-21472.1 0 0)
(-19481.5 0 0)
(-21414.6 0 0)
(-20112.5 0 0)
(-19311.7 0 0)
(-15554.9 0 0)
(-22975 0 0)
(-23188 0 0)
(-23355.4 0 0)
(-23552.2 0 0)
(-23013.3 0 0)
(-22859.2 0 0)
(-23660.8 0 0)
(-23921.9 0 0)
(-24220 0 0)
(-24355.8 0 0)
(-24300.5 0 0)
(-24208.4 0 0)
(-23976.5 0 0)
(-23712.2 0 0)
(-23329.1 0 0)
(-22990.8 0 0)
(-22501.8 0 0)
(-21830 0 0)
(-20892 0 0)
(-19755.7 0 0)
(-18352.3 0 0)
(-16553.3 0 0)
(-14750.7 0 0)
(-15256.5 0 0)
(-8373.06 0 0)
(-2518.57 0 0)
(-4061.2 0 0)
(-6476.51 0 0)
(-8800.13 0 0)
(-10762.4 0 0)
(-12700.2 0 0)
(-14496.2 0 0)
(-16097 0 0)
(-17527 0 0)
(-18760.6 0 0)
(-19813.4 0 0)
(-20850.6 0 0)
(-21971.5 0 0)
(-23152.8 0 0)
(-24329.5 0 0)
(-25390.5 0 0)
(-26253.4 0 0)
(-26900.3 0 0)
(-27346.8 0 0)
(-27645.2 0 0)
(-27756.3 0 0)
(-28027 0 0)
(-27923.4 0 0)
(-29214.1 0 0)
(-29090.4 0 0)
(-28910 0 0)
(-28296.6 0 0)
(-28291.2 0 0)
(-28101.7 0 0)
(-27764.1 0 0)
(-28580.3 0 0)
(-28621.2 0 0)
(-28474.2 0 0)
(-27604.2 0 0)
(-28264.7 0 0)
(-27804.8 0 0)
(-27103.2 0 0)
(-25849.4 0 0)
(-23309 0 0)
(-22034.2 0 0)
(-24619.9 0 0)
(-27009.8 0 0)
(-26988.6 0 0)
(-26358.4 0 0)
(-25614.4 0 0)
(-22270.8 0 0)
(-28982.5 0 0)
(-28734.6 0 0)
(-28656 0 0)
(-28285.1 0 0)
(-28050.2 0 0)
(-27891.4 0 0)
(-27333.9 0 0)
(-26077.7 0 0)
(-24039.5 0 0)
(-17322.7 0 0)
(-28512.5 0 0)
(-27969.3 0 0)
(-28137.9 0 0)
(-27640.8 0 0)
(-26692.9 0 0)
(-25229.9 0 0)
(-24044.3 0 0)
(-19347.9 0 0)
(-21760 0 0)
(-28174.8 0 0)
(-28259.2 0 0)
(-28146.4 0 0)
(-27180.3 0 0)
(-25062.2 0 0)
(-18435.6 0 0)
(-26689 0 0)
(-25354 0 0)
(-24037 0 0)
(-18160.7 0 0)
(-28818.7 0 0)
(-28852.9 0 0)
(-29230.3 0 0)
(-29205 0 0)
(-28959.8 0 0)
(-28804.6 0 0)
(-29235.3 0 0)
(-29400.3 0 0)
(-29624.4 0 0)
(-29731.1 0 0)
(-29657.3 0 0)
(-29490.2 0 0)
(-29231.8 0 0)
(-28884.9 0 0)
(-28409.2 0 0)
(-27846.4 0 0)
(-27136.7 0 0)
(-26203.8 0 0)
(-24963 0 0)
(-23425.2 0 0)
(-21468.4 0 0)
(-19003 0 0)
(-16281.3 0 0)
(-15686.9 0 0)
(-6744.52 0 0)
(-2658.54 0 0)
(-4471.66 0 0)
(-7163.38 0 0)
(-9751 0 0)
(-12001.6 0 0)
(-14227.5 0 0)
(-16306 0 0)
(-18185.3 0 0)
(-19890.5 0 0)
(-21396.4 0 0)
(-22712 0 0)
(-23978.6 0 0)
(-25299.9 0 0)
(-26661.6 0 0)
(-27995.1 0 0)
(-29199 0 0)
(-30201.9 0 0)
(-30996.8 0 0)
(-31622 0 0)
(-32139 0 0)
(-32540.7 0 0)
(-32983.1 0 0)
(-33301.8 0 0)
(-33605.4 0 0)
(-33538.8 0 0)
(-33469.7 0 0)
(-33127.2 0 0)
(-32896 0 0)
(-32818.9 0 0)
(-32874.2 0 0)
(-33153.7 0 0)
(-33283.8 0 0)
(-33379.9 0 0)
(-33117.7 0 0)
(-32877.8 0 0)
(-32400.5 0 0)
(-31907.9 0 0)
(-31333.8 0 0)
(-30947.8 0 0)
(-31247 0 0)
(-32112.5 0 0)
(-32341.1 0 0)
(-31909.7 0 0)
(-31692.9 0 0)
(-31938.1 0 0)
(-31990.3 0 0)
(-33497.6 0 0)
(-33192.3 0 0)
(-33094.6 0 0)
(-32795.4 0 0)
(-32605.8 0 0)
(-32498.4 0 0)
(-32190.7 0 0)
(-31679.2 0 0)
(-31478.6 0 0)
(-30944.6 0 0)
(-33236.6 0 0)
(-32643.9 0 0)
(-32636.9 0 0)
(-32228.8 0 0)
(-31582.8 0 0)
(-30899.4 0 0)
(-30679.2 0 0)
(-30476.1 0 0)
(-31757.9 0 0)
(-33003.3 0 0)
(-32822.9 0 0)
(-32740 0 0)
(-32214.8 0 0)
(-31526.8 0 0)
(-30367.6 0 0)
(-31759.2 0 0)
(-31025.5 0 0)
(-31266.6 0 0)
(-31112.8 0 0)
(-33609.2 0 0)
(-33493.5 0 0)
(-33812.9 0 0)
(-33775.2 0 0)
(-33672.9 0 0)
(-33654.7 0 0)
(-33759.3 0 0)
(-33867.6 0 0)
(-34004.2 0 0)
(-34028.4 0 0)
(-33920.5 0 0)
(-33707 0 0)
(-33399.9 0 0)
(-32975.1 0 0)
(-32400.2 0 0)
(-31681 0 0)
(-30782.6 0 0)
(-29616.2 0 0)
(-28092.4 0 0)
(-26171.9 0 0)
(-23707.1 0 0)
(-20637.9 0 0)
(-17153.4 0 0)
(-15795.6 0 0)
(-5506.13 0 0)
(-2748.18 0 0)
(-4752.96 0 0)
(-7649.52 0 0)
(-10429.6 0 0)
(-12896.8 0 0)
(-15340.8 0 0)
(-17633.3 0 0)
(-19724.2 0 0)
(-21641.9 0 0)
(-23358.5 0 0)
(-24871.2 0 0)
(-26307.3 0 0)
(-27782 0 0)
(-29287.8 0 0)
(-30750.3 0 0)
(-32073.4 0 0)
(-33190.7 0 0)
(-34099.8 0 0)
(-34844.9 0 0)
(-35479.2 0 0)
(-36001.9 0 0)
(-36491.2 0 0)
(-36820.1 0 0)
(-36896.1 0 0)
(-36877.1 0 0)
(-36848.4 0 0)
(-36605.5 0 0)
(-36382.2 0 0)
(-36363.1 0 0)
(-36472.4 0 0)
(-36626.8 0 0)
(-36798.8 0 0)
(-36948.2 0 0)
(-36783.6 0 0)
(-36395 0 0)
(-36037.9 0 0)
(-35797.3 0 0)
(-35689.3 0 0)
(-35920.5 0 0)
(-36326.5 0 0)
(-36480 0 0)
(-36160.9 0 0)
(-35780.1 0 0)
(-35842.4 0 0)
(-36391.4 0 0)
(-36772.5 0 0)
(-36877.4 0 0)
(-36584.5 0 0)
(-36477.3 0 0)
(-36260.2 0 0)
(-36154.6 0 0)
(-36164 0 0)
(-36135.8 0 0)
(-36170.1 0 0)
(-36637.9 0 0)
(-36836.5 0 0)
(-36769.2 0 0)
(-36209.8 0 0)
(-36141.4 0 0)
(-35878 0 0)
(-35543.5 0 0)
(-35373.6 0 0)
(-35721.8 0 0)
(-36322.4 0 0)
(-36740.5 0 0)
(-36629.1 0 0)
(-36438.8 0 0)
(-36473.2 0 0)
(-36361.5 0 0)
(-36333.3 0 0)
(-36068 0 0)
(-35859.4 0 0)
(-35611.5 0 0)
(-36352.7 0 0)
(-36852.6 0 0)
(-37146.1 0 0)
(-36988.3 0 0)
(-37206.4 0 0)
(-37183 0 0)
(-37127.4 0 0)
(-37109.3 0 0)
(-37116.5 0 0)
(-37180.2 0 0)
(-37254.6 0 0)
(-37230.6 0 0)
(-37091.1 0 0)
(-36841.9 0 0)
(-36487.5 0 0)
(-35997.8 0 0)
(-35340.7 0 0)
(-34505.1 0 0)
(-33452.8 0 0)
(-32091.2 0 0)
(-30325.2 0 0)
(-28079.6 0 0)
(-25198.6 0 0)
(-21655.7 0 0)
(-17624.7 0 0)
(-15807.6 0 0)
(-4625.84 0 0)
(-2789.1 0 0)
(-4912.62 0 0)
(-7945.99 0 0)
(-10847.1 0 0)
(-13457.9 0 0)
(-16050.8 0 0)
(-18489.8 0 0)
(-20723.7 0 0)
(-22786.7 0 0)
(-24648.3 0 0)
(-26289.9 0 0)
(-27833.3 0 0)
(-29412.8 0 0)
(-31024.6 0 0)
(-32585.1 0 0)
(-33999.1 0 0)
(-35199.2 0 0)
(-36183.3 0 0)
(-36996.2 0 0)
(-37682.7 0 0)
(-38246.3 0 0)
(-38728.7 0 0)
(-39028.9 0 0)
(-39080.3 0 0)
(-39092.7 0 0)
(-39078.2 0 0)
(-38895.5 0 0)
(-38719.8 0 0)
(-38721.9 0 0)
(-38827.1 0 0)
(-38954.1 0 0)
(-39127.3 0 0)
(-39263.7 0 0)
(-39130.2 0 0)
(-38792.7 0 0)
(-38553.6 0 0)
(-38466.8 0 0)
(-38546.3 0 0)
(-38869.3 0 0)
(-39151 0 0)
(-39065.1 0 0)
(-38679.5 0 0)
(-38407.1 0 0)
(-38562.4 0 0)
(-39074.2 0 0)
(-39337.2 0 0)
(-39124 0 0)
(-38871.7 0 0)
(-38775.1 0 0)
(-38633 0 0)
(-38604.1 0 0)
(-38702.6 0 0)
(-38834.5 0 0)
(-39080.7 0 0)
(-39600.4 0 0)
(-39694.7 0 0)
(-39120.3 0 0)
(-38638.9 0 0)
(-38564.9 0 0)
(-38419.1 0 0)
(-38285.9 0 0)
(-38354.2 0 0)
(-38830.6 0 0)
(-39397.8 0 0)
(-39447.6 0 0)
(-39077.7 0 0)
(-38945.6 0 0)
(-39058.1 0 0)
(-39137.7 0 0)
(-39274.5 0 0)
(-39110.9 0 0)
(-38659.3 0 0)
(-38623.3 0 0)
(-39326.6 0 0)
(-39688.3 0 0)
(-39463.9 0 0)
(-39308.8 0 0)
(-39450.4 0 0)
(-39434.6 0 0)
(-39391.4 0 0)
(-39361.2 0 0)
(-39339.1 0 0)
(-39370.9 0 0)
(-39402.3 0 0)
(-39346.4 0 0)
(-39182.8 0 0)
(-38908.1 0 0)
(-38518.4 0 0)
(-37982.8 0 0)
(-37268.3 0 0)
(-36352.6 0 0)
(-35189.6 0 0)
(-33686.2 0 0)
(-31743.4 0 0)
(-29263.5 0 0)
(-26092.8 0 0)
(-22238.9 0 0)
(-17883.5 0 0)
(-15839.6 0 0)
(-4055.94 0 0)
(-2796.83 0 0)
(-4981.49 0 0)
(-8084.77 0 0)
(-11042.7 0 0)
(-13729.5 0 0)
(-16403.4 0 0)
(-18916 0 0)
(-21218.1 0 0)
(-23354.7 0 0)
(-25292.9 0 0)
(-26992.5 0 0)
(-28575.9 0 0)
(-30206.1 0 0)
(-31881.2 0 0)
(-33504.1 0 0)
(-34976.6 0 0)
(-36225.8 0 0)
(-37248.2 0 0)
(-38089.2 0 0)
(-38789.6 0 0)
(-39357.9 0 0)
(-39819.4 0 0)
(-40100.8 0 0)
(-40170.2 0 0)
(-40201.5 0 0)
(-40193.3 0 0)
(-40054.4 0 0)
(-39921.6 0 0)
(-39930.3 0 0)
(-40023.9 0 0)
(-40140.7 0 0)
(-40298.2 0 0)
(-40410.9 0 0)
(-40305.4 0 0)
(-40046.4 0 0)
(-39886 0 0)
(-39867.9 0 0)
(-39994.3 0 0)
(-40274.1 0 0)
(-40452.5 0 0)
(-40310.4 0 0)
(-39974.2 0 0)
(-39779.3 0 0)
(-39936.1 0 0)
(-40337.1 0 0)
(-40494.5 0 0)
(-40254.1 0 0)
(-40048 0 0)
(-39968.1 0 0)
(-39882.5 0 0)
(-39903.3 0 0)
(-40042.9 0 0)
(-40232.7 0 0)
(-40516.7 0 0)
(-40932.3 0 0)
(-40913.6 0 0)
(-40323.2 0 0)
(-39924.7 0 0)
(-39855.6 0 0)
(-39780.3 0 0)
(-39749 0 0)
(-39897.4 0 0)
(-40335 0 0)
(-40762.6 0 0)
(-40703.5 0 0)
(-40359.6 0 0)