/*--------------------------------*- C++ -*----------------------------------*\
| =========                 |                                                 |
| \\      /  F ield         | foam-extend: Open Source CFD                    |
|  \\    /   O peration     | Version:     5.0                                |
|   \\  /    A nd           | Web:         http://www.foam-extend.org         |
|    \\/     M anipulation  |                                                 |
\*---------------------------------------------------------------------------*/
FoamFile
{
    version     2.0;
    format      ascii;
    class       volVectorField;
    location    "0.045";
    object      currentDensity;
}
// * * * * * * * * * * * * * * * * * * * * * * * * * * * * * * * * * * * * * //

dimensions      [0 -2 0 0 0 1 0];

internalField   nonuniform List<vector> 
4000
(
(0 0 -16.4554)
(0 0 -53.1946)
(0 0 -84.0564)
(0 0 -116.915)
(0 0 -147.131)
(0 0 -173.742)
(0 0 -197.13)
(0 0 -218.501)
(0 0 -235.655)
(0 0 -261.908)
(0 0 -293.92)
(0 0 -320.707)
(0 0 -326.332)
(0 0 -307.866)
(0 0 -289.949)
(0 0 -284.71)
(0 0 -273.162)
(0 0 -281.102)
(0 0 -266.661)
(0 0 -290.813)
(0 0 -307.906)
(0 0 -300.109)
(0 0 -270.163)
(0 0 -262.815)
(0 0 -258.589)
(0 0 -264.191)
(0 0 -318.313)
(0 0 -387.556)
(0 0 -379.16)
(0 0 -325.279)
(0 0 -288.093)
(0 0 -268.018)
(0 0 -259.228)
(0 0 -294.85)
(0 0 -320.995)
(0 0 -310.137)
(0 0 -312.746)
(0 0 -344.287)
(0 0 -315.843)
(0 0 -257.686)
(0 0 -261.29)
(0 0 -297.063)
(0 0 -274.262)
(0 0 -337.622)
(0 0 -340.324)
(0 0 -304.845)
(0 0 -241.857)
(0 0 -249.454)
(0 0 -308.292)
(0 0 -343.502)
(0 0 -328.436)
(0 0 -281.915)
(0 0 -256.288)
(0 0 -303.452)
(0 0 -288.295)
(0 0 -257.599)
(0 0 -231.271)
(0 0 -277.155)
(0 0 -293.835)
(0 0 -293.958)
(0 0 -320.17)
(0 0 -346.618)
(0 0 -296.324)
(0 0 -260.401)
(0 0 -283.682)
(0 0 -291.176)
(0 0 -272.173)
(0 0 -258.195)
(0 0 -267.536)
(0 0 -282.268)
(0 0 -315.222)
(0 0 -346.396)
(0 0 -355.347)
(0 0 -305.735)
(0 0 -270.162)
(0 0 -273.419)
(0 0 -252.009)
(0 0 -276.053)
(0 0 -292.512)
(0 0 -316.44)
(0 0 -329.172)
(0 0 -318.403)
(0 0 -298.228)
(0 0 -285.297)
(0 0 -277.982)
(0 0 -271.92)
(0 0 -267.099)
(0 0 -266.269)
(0 0 -271.603)
(0 0 -269.213)
(0 0 -253.894)
(0 0 -220.144)
(0 0 -194.746)
(0 0 -166.035)
(0 0 -147.405)
(0 0 -127.925)
(0 0 -136.179)
(0 0 -135.526)
(0 0 -113.402)
(0 0 -87.5186)
(0 0 -44.4652)
(0 0 -142.388)
(0 0 -222.774)
(0 0 -302.956)
(0 0 -377.375)
(0 0 -445.082)
(0 0 -505.921)
(0 0 -561.691)
(0 0 -609.096)
(0 0 -667.439)
(0 0 -726.672)
(0 0 -779.002)
(0 0 -775.468)
(0 0 -738.774)
(0 0 -746.313)
(0 0 -756.797)
(0 0 -707.738)
(0 0 -759.522)
(0 0 -735.114)
(0 0 -784.477)
(0 0 -758.997)
(0 0 -773.728)
(0 0 -744.265)
(0 0 -744.336)
(0 0 -742.991)
(0 0 -755.646)
(0 0 -841.838)
(0 0 -931.518)
(0 0 -897.395)
(0 0 -832.318)
(0 0 -784.265)
(0 0 -755.697)
(0 0 -737.359)
(0 0 -794.579)
(0 0 -796.461)
(0 0 -798.809)
(0 0 -785.643)
(0 0 -792.548)
(0 0 -788.725)
(0 0 -719.711)
(0 0 -730.137)
(0 0 -781.282)
(0 0 -810.128)
(0 0 -858.463)
(0 0 -769.91)
(0 0 -753.931)
(0 0 -686.149)
(0 0 -708.59)
(0 0 -799.766)
(0 0 -834.277)
(0 0 -828.852)
(0 0 -774.03)
(0 0 -728.625)
(0 0 -785.588)
(0 0 -616.407)
(0 0 -651.086)
(0 0 -660.524)
(0 0 -745.596)
(0 0 -752.204)
(0 0 -765.163)
(0 0 -726.015)
(0 0 -754.72)
(0 0 -738.319)
(0 0 -715.19)
(0 0 -763.442)
(0 0 -785.447)
(0 0 -762.668)
(0 0 -742.294)
(0 0 -750.033)
(0 0 -767.089)
(0 0 -816.491)
(0 0 -795.163)
(0 0 -847.99)
(0 0 -800.332)
(0 0 -754.414)
(0 0 -753.574)
(0 0 -630.215)
(0 0 -737.282)
(0 0 -771.241)
(0 0 -821.777)
(0 0 -852.887)
(0 0 -843.689)
(0 0 -810.402)
(0 0 -773.688)
(0 0 -771.627)
(0 0 -766.499)
(0 0 -754.257)
(0 0 -756.404)
(0 0 -751.526)
(0 0 -741.754)
(0 0 -715.608)
(0 0 -613.475)
(0 0 -592.033)
(0 0 -551.341)
(0 0 -512.01)
(0 0 -445.433)
(0 0 -420.659)
(0 0 -377.877)
(0 0 -331.554)
(0 0 -316.823)
(0 0 -60.8478)
(0 0 -199.987)
(0 0 -312.769)
(0 0 -421.962)
(0 0 -523.594)
(0 0 -617.439)
(0 0 -702.876)
(0 0 -781.238)
(0 0 -848.144)
(0 0 -919.974)
(0 0 -969.112)
(0 0 -1022.74)
(0 0 -968.087)
(0 0 -885.261)
(0 0 -1014.06)
(0 0 -1069.23)
(0 0 -1089.07)
(0 0 -1114.83)
(0 0 -1107.42)
(0 0 -1143.29)
(0 0 -922.389)
(0 0 -1050.48)
(0 0 -1077.15)
(0 0 -1099.83)
(0 0 -1110.16)
(0 0 -1124.42)
(0 0 -1204.29)
(0 0 -1207.61)
(0 0 -1073.73)
(0 0 -1085.92)
(0 0 -1091)
(0 0 -1092.39)
(0 0 -1065.81)
(0 0 -1139.76)
(0 0 -1152.46)
(0 0 -1067.76)
(0 0 -980.8)
(0 0 -968.519)
(0 0 -1012.94)
(0 0 -994.932)
(0 0 -1034.68)
(0 0 -1091.95)
(0 0 -1126.56)
(0 0 -1158.94)
(0 0 -748.602)
(0 0 -932.129)
(0 0 -951.753)
(0 0 -1019.18)
(0 0 -1102.94)
(0 0 -1086.29)
(0 0 -1095.68)
(0 0 -1093.36)
(0 0 -1039.74)
(0 0 -1072.04)
(0 0 -656.036)
(0 0 -857.919)
(0 0 -945.924)
(0 0 -1060.09)
(0 0 -968.335)
(0 0 -1024.2)
(0 0 -1051.63)
(0 0 -737.872)
(0 0 -920.136)
(0 0 -984.856)
(0 0 -1076.71)
(0 0 -1123.18)
(0 0 -1114.47)
(0 0 -1102.31)
(0 0 -1092.21)
(0 0 -1085.14)
(0 0 -1117.42)
(0 0 -839.51)
(0 0 -1059.85)
(0 0 -1077.17)
(0 0 -1068.43)
(0 0 -1072.17)
(0 0 -931.851)
(0 0 -1065.71)
(0 0 -1060.14)
(0 0 -1137.1)
(0 0 -1184.47)
(0 0 -1188.04)
(0 0 -1168.18)
(0 0 -1075.43)
(0 0 -1126.2)
(0 0 -1137.37)
(0 0 -1137.78)
(0 0 -1134.3)
(0 0 -1086.56)
(0 0 -1069.59)
(0 0 -1050.7)
(0 0 -799.974)
(0 0 -904.043)
(0 0 -894.087)
(0 0 -849.459)
(0 0 -746.506)
(0 0 -589.9)
(0 0 -610.549)
(0 0 -348.024)
(0 0 -441.071)
(0 0 -65.4856)
(0 0 -228.804)
(0 0 -358.827)
(0 0 -484.273)
(0 0 -601.848)
(0 0 -711.451)
(0 0 -812.246)
(0 0 -905.238)
(0 0 -983.178)
(0 0 -1058.37)
(0 0 -1044.52)
(0 0 -1091.69)
(0 0 -860.621)
(0 0 -1098.63)
(0 0 -1209.31)
(0 0 -1277.34)
(0 0 -1323.16)
(0 0 -1351.62)
(0 0 -1353.72)
(0 0 -1383.45)
(0 0 -894.965)
(0 0 -1217.95)
(0 0 -1301.58)
(0 0 -1343.67)
(0 0 -1360.6)
(0 0 -1369.35)
(0 0 -1434.46)
(0 0 -1136.11)
(0 0 -896.001)
(0 0 -1159.27)
(0 0 -1259.83)
(0 0 -1300.6)
(0 0 -1312.66)
(0 0 -1346.4)
(0 0 -1250.45)
(0 0 -1029.66)
(0 0 -1183.76)
(0 0 -685.052)
(0 0 -1021.7)
(0 0 -1116.56)
(0 0 -1184.22)
(0 0 -1200.91)
(0 0 -1241.06)
(0 0 -1263.52)
(0 0 -613.002)
(0 0 -990.04)
(0 0 -1101.01)
(0 0 -1211.73)
(0 0 -1206.67)
(0 0 -1280.83)
(0 0 -1308.99)
(0 0 -1291.21)
(0 0 -1278.46)
(0 0 -1130.09)
(0 0 -692.24)
(0 0 -1020.64)
(0 0 -1151.49)
(0 0 -1246.98)
(0 0 -772.396)
(0 0 -1095.11)
(0 0 -1105.05)
(0 0 -656.511)
(0 0 -1008.41)
(0 0 -1149.41)
(0 0 -1262.4)
(0 0 -1326.74)
(0 0 -1332.83)
(0 0 -1331.41)
(0 0 -1250.28)
(0 0 -1187.54)
(0 0 -1209.96)
(0 0 -959.336)
(0 0 -1142.15)
(0 0 -1206.28)
(0 0 -1243.02)
(0 0 -1298.73)
(0 0 -1270.08)
(0 0 -1310)
(0 0 -1096.12)
(0 0 -1292.9)
(0 0 -1355.49)
(0 0 -1379.8)
(0 0 -1380.95)
(0 0 -1371.67)
(0 0 -1385.7)
(0 0 -1395.59)
(0 0 -1398)
(0 0 -1388.98)
(0 0 -1199.27)
(0 0 -1213.53)
(0 0 -1242.05)
(0 0 -1191.52)
(0 0 -1186)
(0 0 -1157.08)
(0 0 -1076.5)
(0 0 -985.934)
(0 0 -637.1)
(0 0 -588.549)
(0 0 -570.734)
(0 0 -545.623)
(0 0 -58.4056)
(0 0 -232.318)
(0 0 -365.922)
(0 0 -496.237)
(0 0 -619.863)
(0 0 -736.069)
(0 0 -843.783)
(0 0 -944.192)
(0 0 -1025.21)
(0 0 -1090.86)
(0 0 -1086.85)
(0 0 -949.341)
(0 0 -1120.58)
(0 0 -1251.69)
(0 0 -1329.65)
(0 0 -1389.3)
(0 0 -1437.68)
(0 0 -1469.25)
(0 0 -1479.92)
(0 0 -1513.71)
(0 0 -1423.05)
(0 0 -1458.53)
(0 0 -1469.74)
(0 0 -1488.17)
(0 0 -1493.24)
(0 0 -1497.38)
(0 0 -1508.45)
(0 0 -846.575)
(0 0 -1120.7)
(0 0 -1266.93)
(0 0 -1360.07)
(0 0 -1401.01)
(0 0 -1419.67)
(0 0 -1344.5)
(0 0 -860.837)
(0 0 -1128.84)
(0 0 -1270.9)
(0 0 -621.35)
(0 0 -1031.96)
(0 0 -1172.7)
(0 0 -1164.32)
(0 0 -974.367)
(0 0 -1102.99)
(0 0 -1258.17)
(0 0 -694.487)
(0 0 -1085.71)
(0 0 -1210.28)
(0 0 -1319.25)
(0 0 -909.417)
(0 0 -1166.26)
(0 0 -1297.49)
(0 0 -1331.26)
(0 0 -1362.98)
(0 0 -862.555)
(0 0 -1117.19)
(0 0 -1240.09)
(0 0 -1319.59)
(0 0 -1269.49)
(0 0 -1189.09)
(0 0 -1204.78)
(0 0 -702.704)
(0 0 -1018.51)
(0 0 -1169.82)
(0 0 -1272.14)
(0 0 -1307.01)
(0 0 -1384.25)
(0 0 -1411.2)
(0 0 -1428.68)
(0 0 -1417.44)
(0 0 -904.967)
(0 0 -1210.22)
(0 0 -1043.6)
(0 0 -986.998)
(0 0 -1187.98)
(0 0 -1289.71)
(0 0 -1386.67)
(0 0 -1327.57)
(0 0 -1431.43)
(0 0 -1135.43)
(0 0 -1375.95)
(0 0 -1336.73)
(0 0 -1404.54)
(0 0 -1446.51)
(0 0 -1485.14)
(0 0 -1509.68)
(0 0 -1525.66)
(0 0 -1525.22)
(0 0 -1511.95)
(0 0 -1464.22)
(0 0 -1111.24)
(0 0 -1315.73)
(0 0 -1350.3)
(0 0 -1339.88)
(0 0 -1302.4)
(0 0 -1184.15)
(0 0 -1025.38)
(0 0 -957.672)
(0 0 -341.91)
(0 0 -561.888)
(0 0 -564.952)
(0 0 -42.187)
(0 0 -213.508)
(0 0 -338.697)
(0 0 -462.165)
(0 0 -582.177)
(0 0 -695.962)
(0 0 -802.212)
(0 0 -902.825)
(0 0 -977.777)
(0 0 -1065.82)
(0 0 -872.463)
(0 0 -1070.79)
(0 0 -1199.29)
(0 0 -1289.7)
(0 0 -1346.36)
(0 0 -1393.29)
(0 0 -1435.92)
(0 0 -1466.61)
(0 0 -1482.45)
(0 0 -1515.81)
(0 0 -1529.43)
(0 0 -1515.16)
(0 0 -1505.56)
(0 0 -1509.05)
(0 0 -1502.21)
(0 0 -1500.38)
(0 0 -1329.19)
(0 0 -787.541)
(0 0 -1165.49)
(0 0 -1290.5)
(0 0 -1358.6)
(0 0 -1389.38)
(0 0 -1404.14)
(0 0 -930.23)
(0 0 -1048.06)
(0 0 -1190.29)
(0 0 -1314.07)
(0 0 -735.591)
(0 0 -1102.58)
(0 0 -1211.57)
(0 0 -820.225)
(0 0 -1126.57)
(0 0 -620.041)
(0 0 -1087.05)
(0 0 -1132.86)
(0 0 -1253.02)
(0 0 -1296.49)
(0 0 -1366.66)
(0 0 -1296.71)
(0 0 -813.218)
(0 0 -1113.48)
(0 0 -1243.77)
(0 0 -1333.65)
(0 0 -1209.17)
(0 0 -1335.67)
(0 0 -1361.06)
(0 0 -1389.13)
(0 0 -836.832)
(0 0 -1167.94)
(0 0 -1281.51)
(0 0 -735.908)
(0 0 -1131.09)
(0 0 -1236.36)
(0 0 -1305.75)
(0 0 -1048.11)
(0 0 -1267.65)
(0 0 -1352.17)
(0 0 -1402.98)
(0 0 -1379.24)
(0 0 -1312.47)
(0 0 -1192.47)
(0 0 -1200.46)
(0 0 -738.075)
(0 0 -1112.22)
(0 0 -1254.02)
(0 0 -1369.35)
(0 0 -1415.51)
(0 0 -1469.33)
(0 0 -1418.82)
(0 0 -1424.93)
(0 0 -900.051)
(0 0 -1257.74)
(0 0 -1386.33)
(0 0 -1464.93)
(0 0 -1504.23)
(0 0 -1527.12)
(0 0 -1500.98)
(0 0 -1505.12)
(0 0 -1494.92)
(0 0 -1409.51)
(0 0 -1416.27)
(0 0 -1402.71)
(0 0 -1372.47)
(0 0 -1319.05)
(0 0 -1215.38)
(0 0 -1070.34)
(0 0 -1016.8)
(0 0 -305.698)
(0 0 -532.118)
(0 0 -531.111)
(0 0 -21.1127)
(0 0 -178.091)
(0 0 -286.118)
(0 0 -392.803)
(0 0 -502.103)
(0 0 -606.146)
(0 0 -703.931)
(0 0 -798.357)
(0 0 -852.703)
(0 0 -956.585)
(0 0 -846.635)
(0 0 -1042.64)
(0 0 -1147.98)
(0 0 -1216.68)
(0 0 -1258.75)
(0 0 -1294.38)
(0 0 -1329.07)
(0 0 -1355.91)
(0 0 -1372.7)
(0 0 -1402.28)
(0 0 -1437.78)
(0 0 -1372.97)
(0 0 -1400.14)
(0 0 -1406.82)
(0 0 -1393.44)
(0 0 -1386.7)
(0 0 -862.588)
(0 0 -1085.96)
(0 0 -1227.2)
(0 0 -1213.45)
(0 0 -1208.72)
(0 0 -1258.13)
(0 0 -1289.89)
(0 0 -1223.08)
(0 0 -778.538)
(0 0 -1111.15)
(0 0 -1251.53)
(0 0 -1188.87)
(0 0 -1228.08)
(0 0 -1225.61)
(0 0 -1131.33)
(0 0 -1223.79)
(0 0 -574.152)
(0 0 -1012.68)
(0 0 -1174.1)
(0 0 -1260.42)
(0 0 -1273.7)
(0 0 -1313.79)
(0 0 -1213.4)
(0 0 -982.737)
(0 0 -847.087)
(0 0 -1101.15)
(0 0 -1225.55)
(0 0 -1287.2)
(0 0 -1352.07)
(0 0 -1338.6)
(0 0 -1331.01)
(0 0 -928.565)
(0 0 -1168.79)
(0 0 -1268.52)
(0 0 -1160.35)
(0 0 -1179.2)
(0 0 -1205.71)
(0 0 -1239.56)
(0 0 -795.169)
(0 0 -1087.54)
(0 0 -1212.15)
(0 0 -1282.1)
(0 0 -1328.53)
(0 0 -1331.28)
(0 0 -1311.09)
(0 0 -863.422)
(0 0 -1026.78)
(0 0 -1147.77)
(0 0 -1166.16)
(0 0 -1259.06)
(0 0 -1331.28)
(0 0 -1379.18)
(0 0 -1393.58)
(0 0 -1336.43)
(0 0 -1037.35)
(0 0 -1219.22)
(0 0 -1294.27)
(0 0 -1360.61)
(0 0 -1393.51)
(0 0 -1414.04)
(0 0 -1276.15)
(0 0 -1362.24)
(0 0 -1392.24)
(0 0 -1381.66)
(0 0 -1363.23)
(0 0 -1319.62)
(0 0 -1278.86)
(0 0 -1186.65)
(0 0 -1016.06)
(0 0 -980.784)
(0 0 -900.819)
(0 0 -343.222)
(0 0 -501.44)
(0 0 -456.887)
(0 0 1.14009)
(0 0 -132.737)
(0 0 -217.784)
(0 0 -299.268)
(0 0 -393.271)
(0 0 -481.733)
(0 0 -565.532)
(0 0 -648.814)
(0 0 -651.726)
(0 0 -789.776)
(0 0 -833.801)
(0 0 -933.921)
(0 0 -1004.9)
(0 0 -1051.64)
(0 0 -1081.84)
(0 0 -1107.41)
(0 0 -1133.71)
(0 0 -1154.85)
(0 0 -1169.71)
(0 0 -1194.25)
(0 0 -1229.86)
(0 0 -1218.38)
(0 0 -1210.9)
(0 0 -1207.79)
(0 0 -1191.21)
(0 0 -1195.96)
(0 0 -898.262)
(0 0 -1096.2)
(0 0 -1156.49)
(0 0 -1112.6)
(0 0 -792.024)
(0 0 -1020.34)
(0 0 -1091)
(0 0 -1143.84)
(0 0 -1060.15)
(0 0 -1098.22)
(0 0 -1102.12)
(0 0 -1130.45)
(0 0 -1144.48)
(0 0 -1102.74)
(0 0 -1084.99)
(0 0 -1143.24)
(0 0 -716.635)
(0 0 -985.218)
(0 0 -1092.32)
(0 0 -1142.34)
(0 0 -1136.72)
(0 0 -1156.86)
(0 0 -863.778)
(0 0 -1037.58)
(0 0 -891.505)
(0 0 -1001.44)
(0 0 -1075.49)
(0 0 -1156.15)
(0 0 -1202.98)
(0 0 -1175.04)
(0 0 -1114)
(0 0 -1085.29)
(0 0 -1131.46)
(0 0 -1164.16)
(0 0 -1189.2)
(0 0 -815.873)
(0 0 -1025.62)
(0 0 -1077.45)
(0 0 -730.259)
(0 0 -877.03)
(0 0 -1030.76)
(0 0 -1099.77)
(0 0 -1151.37)
(0 0 -1150.36)
(0 0 -1180.52)
(0 0 -1105.19)
(0 0 -996.069)
(0 0 -1071.35)
(0 0 -878.233)
(0 0 -1030.03)
(0 0 -1139.14)
(0 0 -1186.3)
(0 0 -1215.27)
(0 0 -919.086)
(0 0 -1056.78)
(0 0 -1123.67)
(0 0 -1118.03)
(0 0 -1173.73)
(0 0 -1189.96)
(0 0 -1206.3)
(0 0 -1124.13)
(0 0 -1169.91)
(0 0 -1192.32)
(0 0 -1198.68)
(0 0 -1174.37)
(0 0 -1095.21)
(0 0 -1075.59)
(0 0 -983.263)
(0 0 -689.672)
(0 0 -760.233)
(0 0 -543.96)
(0 0 -496.347)
(0 0 -460.964)
(0 0 -334.03)
(0 0 22.4771)
(0 0 -83.2773)
(0 0 -141.659)
(0 0 -190.969)
(0 0 -267.897)
(0 0 -336.413)
(0 0 -402.289)
(0 0 -470.57)
(0 0 -511.631)
(0 0 -597.476)
(0 0 -667.985)
(0 0 -739.503)
(0 0 -790.022)
(0 0 -815.227)
(0 0 -837.752)
(0 0 -854.037)
(0 0 -871.507)
(0 0 -885.321)
(0 0 -896.594)
(0 0 -915.379)
(0 0 -944.69)
(0 0 -946.265)
(0 0 -934.851)
(0 0 -928.501)
(0 0 -913.84)
(0 0 -925.653)
(0 0 -882.885)
(0 0 -956.398)
(0 0 -964.629)
(0 0 -804.822)
(0 0 -788.294)
(0 0 -828.793)
(0 0 -852.943)
(0 0 -916.183)
(0 0 -936.37)
(0 0 -930.193)
(0 0 -930.537)
(0 0 -802.659)
(0 0 -907.659)
(0 0 -884.244)
(0 0 -879.659)
(0 0 -935.598)
(0 0 -847.945)
(0 0 -895.044)
(0 0 -915.518)
(0 0 -923.487)
(0 0 -905.667)
(0 0 -917.993)
(0 0 -858.864)
(0 0 -916.5)
(0 0 -709.19)
(0 0 -817.192)
(0 0 -856.741)
(0 0 -917.272)
(0 0 -945.153)
(0 0 -897.23)
(0 0 -910.898)
(0 0 -935.375)
(0 0 -945.376)
(0 0 -952.061)
(0 0 -1001.52)
(0 0 -897.899)
(0 0 -877.826)
(0 0 -867.157)
(0 0 -779.27)
(0 0 -808.51)
(0 0 -839.11)
(0 0 -861.565)
(0 0 -892.083)
(0 0 -806.092)
(0 0 -904.064)
(0 0 -959.513)
(0 0 -937.129)
(0 0 -907.45)
(0 0 -819.942)
(0 0 -857.122)
(0 0 -902.469)
(0 0 -925.714)
(0 0 -952.787)
(0 0 -886.909)
(0 0 -918.337)
(0 0 -924.365)
(0 0 -910.015)
(0 0 -920.263)
(0 0 -900.595)
(0 0 -920.148)
(0 0 -903.527)
(0 0 -909.298)
(0 0 -916.871)
(0 0 -922.163)
(0 0 -880.137)
(0 0 -844.304)
(0 0 -802.796)
(0 0 -612.867)
(0 0 -587.179)
(0 0 -585.624)
(0 0 -443.637)
(0 0 -433.97)
(0 0 -336.959)
(0 0 -137.404)
(0 0 41.9422)
(0 0 -33.9622)
(0 0 -63.5167)
(0 0 -74.7481)
(0 0 -136.399)
(0 0 -181.821)
(0 0 -226.706)
(0 0 -275.436)
(0 0 -316.86)
(0 0 -377.255)
(0 0 -442.154)
(0 0 -494.637)
(0 0 -530.644)
(0 0 -527.893)
(0 0 -551.72)
(0 0 -558.091)
(0 0 -565.752)
(0 0 -570.206)
(0 0 -577.855)
(0 0 -590.546)
(0 0 -613.062)
(0 0 -614.233)
(0 0 -602.452)
(0 0 -594.191)
(0 0 -582.824)
(0 0 -597.234)
(0 0 -625.573)
(0 0 -682.752)
(0 0 -679.109)
(0 0 -606.514)
(0 0 -581.496)
(0 0 -562.332)
(0 0 -557.16)
(0 0 -607.787)
(0 0 -655.479)
(0 0 -649.543)
(0 0 -645.51)
(0 0 -627.172)
(0 0 -631.788)
(0 0 -590.461)
(0 0 -585.484)
(0 0 -639.091)
(0 0 -654.423)
(0 0 -662.259)
(0 0 -642.391)
(0 0 -623.848)
(0 0 -602.107)
(0 0 -611.165)
(0 0 -618.087)
(0 0 -647.661)
(0 0 -585.484)
(0 0 -579.366)
(0 0 -577.096)
(0 0 -611.008)
(0 0 -619.272)
(0 0 -583.803)
(0 0 -610.059)
(0 0 -651.215)
(0 0 -655.465)
(0 0 -656.376)
(0 0 -705.989)
(0 0 -684.588)
(0 0 -623.484)
(0 0 -582.67)
(0 0 -568.105)
(0 0 -579.393)
(0 0 -568.761)
(0 0 -562.536)
(0 0 -575.415)
(0 0 -556.672)
(0 0 -603.952)
(0 0 -677.129)
(0 0 -685.989)
(0 0 -632.65)
(0 0 -573.317)
(0 0 -584.467)
(0 0 -602.395)
(0 0 -608.092)
(0 0 -628.908)
(0 0 -629.737)
(0 0 -645.886)
(0 0 -631.815)
(0 0 -609.511)
(0 0 -601.354)
(0 0 -586.202)
(0 0 -589.21)
(0 0 -585.282)
(0 0 -583.229)
(0 0 -584.379)
(0 0 -587.863)
(0 0 -565.049)
(0 0 -517.951)
(0 0 -465.765)
(0 0 -374.508)
(0 0 -363.404)
(0 0 -350.128)
(0 0 -293.671)
(0 0 -263.169)
(0 0 -129.691)
(0 0 134.388)
(0 0 59.6573)
(0 0 13.753)
(0 0 14.5348)
(0 0 22.328)
(0 0 -2.07399)
(0 0 -21.1359)
(0 0 -41.9447)
(0 0 -68.7057)
(0 0 -96.0615)
(0 0 -135.215)
(0 0 -184.136)
(0 0 -216.132)
(0 0 -240.195)
(0 0 -237.863)
(0 0 -237.817)
(0 0 -231.49)
(0 0 -228.918)
(0 0 -221.766)
(0 0 -229.102)
(0 0 -236.906)
(0 0 -255.456)
(0 0 -250.326)
(0 0 -238.27)
(0 0 -224.466)
(0 0 -216.776)
(0 0 -230.34)
(0 0 -281.344)
(0 0 -334.421)
(0 0 -326.723)
(0 0 -287.29)
(0 0 -264.159)
(0 0 -224.341)
(0 0 -209.948)
(0 0 -247.317)
(0 0 -301.106)
(0 0 -300.702)
(0 0 -303.334)
(0 0 -312.559)
(0 0 -291.198)
(0 0 -242.252)
(0 0 -236.393)
(0 0 -286.012)
(0 0 -334.37)
(0 0 -336.398)
(0 0 -299.048)
(0 0 -266.332)
(0 0 -245.829)
(0 0 -255.326)
(0 0 -279.696)
(0 0 -316.494)
(0 0 -292.565)
(0 0 -260.332)
(0 0 -240.642)
(0 0 -258.116)
(0 0 -250.646)
(0 0 -206.101)
(0 0 -253.295)
(0 0 -299.795)
(0 0 -301.656)
(0 0 -302.812)
(0 0 -348.422)
(0 0 -353.637)
(0 0 -290.113)
(0 0 -239.206)
(0 0 -245.444)
(0 0 -258.466)
(0 0 -231.009)
(0 0 -214.023)
(0 0 -216.18)
(0 0 -215.51)
(0 0 -240.233)
(0 0 -326.292)
(0 0 -346.088)
(0 0 -283.53)
(0 0 -237.391)
(0 0 -244.493)
(0 0 -251.684)
(0 0 -247.956)
(0 0 -261.941)
(0 0 -282.393)
(0 0 -296.915)
(0 0 -272.929)
(0 0 -251.072)
(0 0 -234.563)
(0 0 -219.853)
(0 0 -217.732)
(0 0 -217.489)
(0 0 -215.266)
(0 0 -215.143)
(0 0 -219.563)
(0 0 -204.672)
(0 0 -175.17)
(0 0 -146.159)
(0 0 -105.062)
(0 0 -97.5751)
(0 0 -70.4636)
(0 0 -64.0895)
(0 0 -35.8183)
(0 0 128.614)
(0 0 428.635)
(0 0 75.9836)
(0 0 59.6285)
(0 0 89.7487)
(0 0 121.651)
(0 0 127.973)
(0 0 135.725)
(0 0 139.927)
(0 0 136.723)
(0 0 129.143)
(0 0 111.792)
(0 0 84.0135)
(0 0 67.2134)
(0 0 63.129)
(0 0 74.5356)
(0 0 90.4368)
(0 0 108.081)
(0 0 120.136)
(0 0 129.242)
(0 0 128.751)
(0 0 122.587)
(0 0 102.054)
(0 0 117.398)
(0 0 127.362)
(0 0 153.606)
(0 0 159.125)
(0 0 148.315)
(0 0 93.4427)
(0 0 49.8015)
(0 0 57.658)
(0 0 82.5177)
(0 0 102.376)
(0 0 137.78)
(0 0 157.287)
(0 0 125.833)
(0 0 82.6834)
(0 0 77.0045)
(0 0 70.5709)
(0 0 54.3031)
(0 0 80.639)
(0 0 125.829)
(0 0 128.793)
(0 0 84.0617)
(0 0 33.3246)
(0 0 30.7797)
(0 0 71.8519)
(0 0 102.228)
(0 0 132.578)
(0 0 121.186)
(0 0 96.0587)
(0 0 60.9446)
(0 0 68.1474)
(0 0 100.837)
(0 0 121.809)
(0 0 111.762)
(0 0 126.952)
(0 0 149.407)
(0 0 119.496)
(0 0 70.0284)
(0 0 78.9208)
(0 0 74.2591)
(0 0 34.7511)
(0 0 20.9629)
(0 0 73.7516)
(0 0 121.313)
(0 0 108.777)
(0 0 96.4937)
(0 0 132.086)
(0 0 155.439)
(0 0 158.009)
(0 0 152.886)
(0 0 122.702)
(0 0 51.1223)
(0 0 27.3079)
(0 0 84.5672)
(0 0 124.011)
(0 0 121.355)
(0 0 120.926)
(0 0 126.519)
(0 0 121.341)
(0 0 94.7808)
(0 0 79.5502)
(0 0 110.842)
(0 0 133.214)
(0 0 152.675)
(0 0 166.012)
(0 0 169.188)
(0 0 167.319)
(0 0 166.786)
(0 0 164.793)
(0 0 158.52)
(0 0 163.818)
(0 0 179.594)
(0 0 192.328)
(0 0 201.523)
(0 0 189.94)
(0 0 204.304)
(0 0 192.793)
(0 0 212.248)
(0 0 389.839)
(0 0 603.755)
(0 0 91.0244)
(0 0 103.058)
(0 0 160.613)
(0 0 217.254)
(0 0 251.351)
(0 0 285.215)
(0 0 314.09)
(0 0 334.539)
(0 0 348.566)
(0 0 353.144)
(0 0 348.056)
(0 0 349.761)
(0 0 363.136)
(0 0 386.549)
(0 0 415.03)
(0 0 442.49)
(0 0 462.827)
(0 0 475.733)
(0 0 477.365)
(0 0 466.638)
(0 0 427.734)
(0 0 459.243)
(0 0 459.526)
(0 0 522.689)
(0 0 530.023)
(0 0 518.577)
(0 0 469.439)
(0 0 440.026)
(0 0 444.587)
(0 0 461.076)
(0 0 477.847)
(0 0 503.692)
(0 0 517.986)
(0 0 490.065)
(0 0 467.437)
(0 0 455.301)
(0 0 444.78)
(0 0 426.799)
(0 0 446.597)
(0 0 479.629)
(0 0 477.009)
(0 0 445.97)
(0 0 408.269)
(0 0 400.216)
(0 0 431.124)
(0 0 445.017)
(0 0 508.637)
(0 0 496.23)
(0 0 477.148)
(0 0 447.514)
(0 0 446.274)
(0 0 469.386)
(0 0 481.076)
(0 0 468.002)
(0 0 477.647)
(0 0 479.441)
(0 0 486.664)
(0 0 431.729)
(0 0 459.481)
(0 0 450.032)
(0 0 415.227)
(0 0 395.371)
(0 0 427.656)
(0 0 458.666)
(0 0 439.538)
(0 0 436.364)
(0 0 497.453)
(0 0 519.578)
(0 0 520.793)
(0 0 512.127)
(0 0 480.853)
(0 0 426.785)
(0 0 396.417)
(0 0 438.828)
(0 0 462.312)
(0 0 476.585)
(0 0 488.535)
(0 0 485.834)
(0 0 498.074)
(0 0 467.158)
(0 0 442.118)
(0 0 496.666)
(0 0 516.946)
(0 0 536.266)
(0 0 547.243)
(0 0 549.148)
(0 0 545.167)
(0 0 539.694)
(0 0 534.409)
(0 0 523.904)
(0 0 521.435)
(0 0 526.067)
(0 0 522.479)
(0 0 509.308)
(0 0 487.916)
(0 0 473.373)
(0 0 441.713)
(0 0 437.114)
(0 0 588.122)
(0 0 598.806)
(0 0 104.661)
(0 0 142.329)
(0 0 224.422)
(0 0 303.885)
(0 0 362.664)
(0 0 420.587)
(0 0 472.554)
(0 0 515.499)
(0 0 550.965)
(0 0 576.947)
(0 0 593.897)
(0 0 614.527)
(0 0 644.086)
(0 0 680.407)
(0 0 720.106)
(0 0 756.631)
(0 0 784.528)
(0 0 801.998)
(0 0 804.884)
(0 0 784.112)
(0 0 672.994)
(0 0 786.876)
(0 0 710.945)
(0 0 877.073)
(0 0 875.676)
(0 0 862.56)
(0 0 813.368)
(0 0 805.05)
(0 0 806.972)
(0 0 817.807)
(0 0 833.545)
(0 0 847.999)
(0 0 848.019)
(0 0 805.255)
(0 0 827.473)
(0 0 809.9)
(0 0 793.582)
(0 0 768.849)
(0 0 770.818)
(0 0 784.162)
(0 0 766.02)
(0 0 762.855)
(0 0 759.554)
(0 0 740.337)
(0 0 743.228)
(0 0 683.841)
(0 0 862.574)
(0 0 850.807)
(0 0 839.267)
(0 0 814.393)
(0 0 807.835)
(0 0 818.231)
(0 0 813.897)
(0 0 783.105)
(0 0 763.259)
(0 0 705.694)
(0 0 827.447)
(0 0 738.362)
(0 0 817.965)
(0 0 803.446)
(0 0 767.281)
(0 0 735.222)
(0 0 737.714)
(0 0 731.786)
(0 0 678.86)
(0 0 690.235)
(0 0 840.55)
(0 0 857.704)
(0 0 849.296)
(0 0 830.29)
(0 0 791.062)
(0 0 772.52)
(0 0 727.516)
(0 0 740.33)
(0 0 711.904)
(0 0 778.776)
(0 0 831.303)
(0 0 789.246)
(0 0 851.874)
(0 0 809.273)
(0 0 727.735)
(0 0 859.3)
(0 0 878.241)
(0 0 895.629)
(0 0 903.966)
(0 0 903.603)
(0 0 897.343)
(0 0 882.982)
(0 0 874.232)
(0 0 855.204)
(0 0 857.507)
(0 0 846.097)
(0 0 826.815)
(0 0 795.792)
(0 0 758.097)
(0 0 715.813)
(0 0 657.687)
(0 0 614.198)
(0 0 706.18)
(0 0 514.011)
(0 0 116.437)
(0 0 175.905)
(0 0 279.158)
(0 0 378.624)
(0 0 458.795)
(0 0 537.833)
(0 0 610.236)
(0 0 673.182)
(0 0 727.984)
(0 0 773.134)
(0 0 809.441)
(0 0 846.976)
(0 0 890.795)
(0 0 939.186)
(0 0 988.989)
(0 0 1034.05)
(0 0 1069.57)
(0 0 1093.9)
(0 0 1105.4)
(0 0 1103.37)
(0 0 1077.07)
(0 0 1084.56)
(0 0 946.299)
(0 0 1189.22)
(0 0 1182.92)
(0 0 1162.92)
(0 0 1078.26)
(0 0 1134.11)
(0 0 1128.54)
(0 0 1120.17)
(0 0 1152.43)
(0 0 1153.09)
(0 0 1127.78)
(0 0 988.74)
(0 0 1143.45)
(0 0 1121.72)
(0 0 1095.42)
(0 0 1053.95)
(0 0 1017.11)
(0 0 995.535)
(0 0 913.209)
(0 0 966.899)
(0 0 1069.62)
(0 0 1038.67)
(0 0 1005.44)
(0 0 839.69)
(0 0 1176.56)
(0 0 1165.82)
(0 0 1159.97)
(0 0 1138.45)
(0 0 1128.1)
(0 0 1126.39)
(0 0 1104.68)
(0 0 1046.56)
(0 0 961.295)
(0 0 686.25)
(0 0 1146.87)
(0 0 1108.71)
(0 0 1135.67)
(0 0 1114.4)
(0 0 1071.43)
(0 0 1018.85)
(0 0 983.118)
(0 0 895.698)
(0 0 717.1)
(0 0 1103.77)
(0 0 1146.76)
(0 0 1152.8)
(0 0 1124.13)
(0 0 1073.61)
(0 0 974.073)
(0 0 1070.73)
(0 0 1005.63)
(0 0 965.584)
(0 0 777.746)
(0 0 1148.75)
(0 0 1159.4)
(0 0 1167.77)
(0 0 1177.61)
(0 0 1150.67)
(0 0 1142.96)
(0 0 1183.04)
(0 0 1196.1)
(0 0 1211)
(0 0 1217.79)
(0 0 1215.03)
(0 0 1210.42)
(0 0 1198.82)
(0 0 1185.61)
(0 0 1166.45)
(0 0 1149.54)
(0 0 1125.09)
(0 0 1091.5)
(0 0 1044.6)
(0 0 987.787)
(0 0 917.613)
(0 0 827.666)
(0 0 737.534)
(0 0 762.827)
(0 0 418.653)
(0 0 125.928)
(0 0 203.06)
(0 0 323.825)
(0 0 440.007)
(0 0 538.121)
(0 0 635.008)
(0 0 724.808)
(0 0 804.849)
(0 0 876.351)
(0 0 938.029)
(0 0 990.672)
(0 0 1042.53)
(0 0 1098.57)
(0 0 1157.64)
(0 0 1216.48)
(0 0 1269.52)
(0 0 1312.67)
(0 0 1345.02)
(0 0 1367.34)
(0 0 1382.26)
(0 0 1387.82)
(0 0 1401.35)
(0 0 1396.17)
(0 0 1460.7)
(0 0 1454.52)
(0 0 1445.5)
(0 0 1414.83)
(0 0 1414.56)
(0 0 1405.08)
(0 0 1388.2)
(0 0 1429.02)
(0 0 1431.06)
(0 0 1423.71)
(0 0 1380.21)
(0 0 1413.23)
(0 0 1390.24)
(0 0 1355.16)
(0 0 1292.47)
(0 0 1165.45)
(0 0 1101.71)
(0 0 1230.99)
(0 0 1350.49)
(0 0 1349.43)
(0 0 1317.92)
(0 0 1280.72)
(0 0 1113.54)
(0 0 1449.12)
(0 0 1436.73)
(0 0 1432.8)
(0 0 1414.26)
(0 0 1402.51)
(0 0 1394.57)
(0 0 1366.7)
(0 0 1303.88)
(0 0 1201.98)
(0 0 866.133)
(0 0 1425.62)
(0 0 1398.47)
(0 0 1406.89)
(0 0 1382.04)
(0 0 1334.65)
(0 0 1261.49)
(0 0 1202.22)
(0 0 967.397)
(0 0 1088)
(0 0 1408.74)
(0 0 1412.96)
(0 0 1407.32)
(0 0 1359.01)
(0 0 1253.11)
(0 0 921.782)
(0 0 1334.45)
(0 0 1267.7)
(0 0 1201.85)
(0 0 908.037)
(0 0 1440.94)
(0 0 1442.65)
(0 0 1461.52)
(0 0 1460.25)
(0 0 1447.99)
(0 0 1440.23)
(0 0 1461.77)
(0 0 1470.02)
(0 0 1481.22)
(0 0 1486.55)
(0 0 1482.86)
(0 0 1474.51)
(0 0 1461.59)
(0 0 1444.25)
(0 0 1420.46)
(0 0 1392.32)
(0 0 1356.84)
(0 0 1310.19)
(0 0 1248.15)
(0 0 1171.26)
(0 0 1073.42)
(0 0 950.148)
(0 0 814.063)
(0 0 784.347)
(0 0 337.226)
(0 0 132.927)
(0 0 223.583)
(0 0 358.169)
(0 0 487.55)
(0 0 600.082)
(0 0 711.376)
(0 0 815.301)
(0 0 909.265)
(0 0 994.524)
(0 0 1069.82)
(0 0 1135.6)
(0 0 1198.93)
(0 0 1264.99)
(0 0 1333.08)
(0 0 1399.75)
(0 0 1459.95)
(0 0 1510.09)
(0 0 1549.84)
(0 0 1581.1)
(0 0 1606.95)
(0 0 1627.03)
(0 0 1649.15)
(0 0 1665.09)
(0 0 1680.27)
(0 0 1676.94)
(0 0 1673.49)
(0 0 1656.36)
(0 0 1644.8)
(0 0 1640.95)
(0 0 1643.71)
(0 0 1657.69)
(0 0 1664.19)
(0 0 1669)
(0 0 1655.88)
(0 0 1643.89)
(0 0 1620.02)
(0 0 1595.4)
(0 0 1566.69)
(0 0 1547.39)
(0 0 1562.35)
(0 0 1605.63)
(0 0 1617.06)
(0 0 1595.48)
(0 0 1584.65)
(0 0 1596.91)
(0 0 1599.51)
(0 0 1674.88)
(0 0 1659.62)
(0 0 1654.73)
(0 0 1639.77)
(0 0 1630.29)
(0 0 1624.92)
(0 0 1609.53)
(0 0 1583.96)
(0 0 1573.93)
(0 0 1547.23)
(0 0 1661.83)
(0 0 1632.2)
(0 0 1631.84)
(0 0 1611.44)
(0 0 1579.14)
(0 0 1544.97)
(0 0 1533.96)
(0 0 1523.8)
(0 0 1587.89)
(0 0 1650.17)
(0 0 1641.14)
(0 0 1637)
(0 0 1610.74)
(0 0 1576.34)
(0 0 1518.38)
(0 0 1587.96)
(0 0 1551.28)
(0 0 1563.33)
(0 0 1555.64)
(0 0 1680.46)
(0 0 1674.67)
(0 0 1690.64)
(0 0 1688.76)
(0 0 1683.64)
(0 0 1682.73)
(0 0 1687.96)
(0 0 1693.38)
(0 0 1700.21)
(0 0 1701.42)
(0 0 1696.03)
(0 0 1685.35)
(0 0 1669.99)
(0 0 1648.75)
(0 0 1620.01)
(0 0 1584.05)
(0 0 1539.13)
(0 0 1480.81)
(0 0 1404.62)
(0 0 1308.59)
(0 0 1185.35)
(0 0 1031.89)
(0 0 857.672)
(0 0 789.778)
(0 0 275.307)
(0 0 137.409)
(0 0 237.648)
(0 0 382.476)
(0 0 521.482)
(0 0 644.838)
(0 0 767.038)
(0 0 881.667)
(0 0 986.209)
(0 0 1082.09)
(0 0 1167.93)
(0 0 1243.56)
(0 0 1315.36)
(0 0 1389.1)
(0 0 1464.39)
(0 0 1537.51)
(0 0 1603.67)
(0 0 1659.53)
(0 0 1704.99)
(0 0 1742.25)
(0 0 1773.96)
(0 0 1800.09)
(0 0 1824.56)
(0 0 1841.01)
(0 0 1844.8)
(0 0 1843.85)
(0 0 1842.42)
(0 0 1830.27)
(0 0 1819.11)
(0 0 1818.16)
(0 0 1823.62)
(0 0 1831.34)
(0 0 1839.94)
(0 0 1847.41)
(0 0 1839.18)
(0 0 1819.75)
(0 0 1801.89)
(0 0 1789.87)
(0 0 1784.46)
(0 0 1796.03)
(0 0 1816.32)
(0 0 1824)
(0 0 1808.04)
(0 0 1789)
(0 0 1792.12)
(0 0 1819.57)
(0 0 1838.62)
(0 0 1843.87)
(0 0 1829.22)
(0 0 1823.87)
(0 0 1813.01)
(0 0 1807.73)
(0 0 1808.2)
(0 0 1806.79)
(0 0 1808.51)
(0 0 1831.89)
(0 0 1841.83)
(0 0 1838.46)
(0 0 1810.49)
(0 0 1807.07)
(0 0 1793.9)
(0 0 1777.18)
(0 0 1768.68)
(0 0 1786.09)
(0 0 1816.12)
(0 0 1837.02)
(0 0 1831.45)
(0 0 1821.94)
(0 0 1823.66)
(0 0 1818.08)
(0 0 1816.67)
(0 0 1803.4)
(0 0 1792.97)
(0 0 1780.58)
(0 0 1817.64)
(0 0 1842.63)
(0 0 1857.3)
(0 0 1849.42)
(0 0 1860.32)
(0 0 1859.15)
(0 0 1856.37)
(0 0 1855.46)
(0 0 1855.83)
(0 0 1859.01)
(0 0 1862.73)
(0 0 1861.53)
(0 0 1854.55)
(0 0 1842.09)
(0 0 1824.38)
(0 0 1799.89)
(0 0 1767.03)
(0 0 1725.25)
(0 0 1672.64)
(0 0 1604.56)
(0 0 1516.26)
(0 0 1403.98)
(0 0 1259.93)
(0 0 1082.79)
(0 0 881.235)
(0 0 790.381)
(0 0 231.292)
(0 0 139.455)
(0 0 245.631)
(0 0 397.3)
(0 0 542.355)
(0 0 672.893)
(0 0 802.539)
(0 0 924.488)
(0 0 1036.19)
(0 0 1139.33)
(0 0 1232.41)
(0 0 1314.5)
(0 0 1391.67)
(0 0 1470.64)
(0 0 1551.23)
(0 0 1629.26)
(0 0 1699.96)
(0 0 1759.96)
(0 0 1809.16)
(0 0 1849.81)
(0 0 1884.13)
(0 0 1912.31)
(0 0 1936.43)
(0 0 1951.45)
(0 0 1954.01)
(0 0 1954.63)
(0 0 1953.91)
(0 0 1944.78)
(0 0 1935.99)
(0 0 1936.1)
(0 0 1941.35)
(0 0 1947.71)
(0 0 1956.37)
(0 0 1963.19)
(0 0 1956.51)
(0 0 1939.64)
(0 0 1927.68)
(0 0 1923.34)
(0 0 1927.32)
(0 0 1943.46)
(0 0 1957.55)
(0 0 1953.25)
(0 0 1933.98)
(0 0 1920.35)
(0 0 1928.12)
(0 0 1953.71)
(0 0 1966.86)
(0 0 1956.2)
(0 0 1943.58)
(0 0 1938.75)
(0 0 1931.65)
(0 0 1930.2)
(0 0 1935.13)
(0 0 1941.73)
(0 0 1954.03)
(0 0 1980.02)
(0 0 1984.73)
(0 0 1956.02)
(0 0 1931.95)
(0 0 1928.25)
(0 0 1920.96)
(0 0 1914.29)
(0 0 1917.71)
(0 0 1941.53)
(0 0 1969.89)
(0 0 1972.38)
(0 0 1953.89)
(0 0 1947.28)
(0 0 1952.9)
(0 0 1956.88)
(0 0 1963.73)
(0 0 1955.55)
(0 0 1932.97)
(0 0 1931.17)
(0 0 1966.33)
(0 0 1984.41)
(0 0 1973.2)
(0 0 1965.44)
(0 0 1972.52)
(0 0 1971.73)
(0 0 1969.57)
(0 0 1968.06)
(0 0 1966.96)
(0 0 1968.55)
(0 0 1970.11)
(0 0 1967.32)
(0 0 1959.14)
(0 0 1945.4)
(0 0 1925.92)
(0 0 1899.14)
(0 0 1863.41)
(0 0 1817.63)
(0 0 1759.48)
(0 0 1684.31)
(0 0 1587.17)
(0 0 1463.18)
(0 0 1304.64)
(0 0 1111.95)
(0 0 894.174)
(0 0 791.98)
(0 0 202.797)
(0 0 139.841)
(0 0 249.075)
(0 0 404.238)
(0 0 552.136)
(0 0 686.476)
(0 0 820.168)
(0 0 945.798)
(0 0 1060.91)
(0 0 1167.73)
(0 0 1264.65)
(0 0 1349.63)
(0 0 1428.79)
(0 0 1510.31)
(0 0 1594.06)
(0 0 1675.21)
(0 0 1748.83)
(0 0 1811.29)
(0 0 1862.41)
(0 0 1904.46)
(0 0 1939.48)
(0 0 1967.89)
(0 0 1990.97)
(0 0 2005.04)
(0 0 2008.51)
(0 0 2010.07)
(0 0 2009.67)
(0 0 2002.72)
(0 0 1996.08)
(0 0 1996.51)
(0 0 2001.19)
(0 0 2007.04)
(0 0 2014.91)
(0 0 2020.54)
(0 0 2015.27)
(0 0 2002.32)
(0 0 1994.3)
(0 0 1993.39)
(0 0 1999.72)
(0 0 2013.7)
(0 0 2022.62)
(0 0 2015.52)
(0 0 1998.71)
(0 0 1988.96)
(0 0 1996.8)
(0 0 2016.86)
(0 0 2024.73)
(0 0 2012.7)
(0 0 2002.4)
(0 0 1998.41)
(0 0 1994.13)
(0 0 1995.16)
(0 0 2002.14)
(0 0 2011.63)
(0 0 2025.84)
(0 0 2046.61)
(0 0 2045.68)
(0 0 2016.16)
(0 0 1996.23)
(0 0 1992.78)
(0 0 1989.02)
(0 0 1987.45)
(0 0 1994.87)
(0 0 2016.75)
(0 0 2038.13)
(0 0 2035.18)
(0 0 2017.98)
(0 0 2013.96)
(0 0 2020.73)
(0 0 2027.47)
(0 0 2034.42)
(0 0 2026.74)
(0 0 2006.59)
(0 0 2007.89)
(0 0 2034.98)
(0 0 2045.58)
(0 0 2031.09)
(0 0 2024.22)
(0 0 2028.61)
(0 0 2027.93)
(0 0 2025.99)
(0 0 2024.2)
(0 0 2022.69)
(0 0 2023.22)
(0 0 2023.35)
(0 0 2019.54)
(0 0 2010.66)
(0 0 1996.25)
(0 0 1975.83)
(0 0 1947.89)
(0 0 1910.75)
(0 0 1862.93)
(0 0 1801.84)
(0 0 1722.95)
(0 0 1621.28)
(0 0 1491.38)
(0 0 1325.85)
(0 0 1126.23)
(0 0 902.11)
(0 0 794.576)
(0 0 188.336)
(0 0 139.336)
(0 0 248.795)
(0 0 403.78)
(0 0 551.606)
(0 0 686.171)
(0 0 820.148)
(0 0 945.575)
(0 0 1060.19)
(0 0 1167.05)
(0 0 1264.4)
(0 0 1348.67)
(0 0 1426.28)
(0 0 1507.46)
(0 0 1592.17)
(0 0 1674.61)
(0 0 1749.61)
(0 0 1813.03)
(0 0 1864.56)