/*--------------------------------*- C++ -*----------------------------------*\
| =========                 |                                                 |
| \\      /  F ield         | foam-extend: Open Source CFD                    |
|  \\    /   O peration     | Version:     5.0                                |
|   \\  /    A nd           | Web:         http://www.foam-extend.org         |
|    \\/     M anipulation  |                                                 |
\*---------------------------------------------------------------------------*/
FoamFile
{
    version     2.0;
    format      ascii;
    class       volScalarField;
    location    "0.045";
    object      p;
}
// * * * * * * * * * * * * * * * * * * * * * * * * * * * * * * * * * * * * * //

dimensions      [1 -1 -2 0 0 0 0];

internalField   nonuniform List<scalar> 
4000
(
50302.6
50476.4
50870.4
51250.4
51675
52190.3
52782.1
53397.9
53837.5
53845.6
53731.4
53772
53976.9
54549.8
55328.7
56021.2
56510.5
56677.1
56629.9
56006.9
55326.6
55454.6
55582.9
55511.9
55286.2
54445.4
52583
50932.7
50692
50921.7
50877.7
50607.8
50188
49177.1
48148.1
47577.8
46291.8
45138.5
45247
45370.7
44893.1
43963.8
43240.1
42183.2
41248.8
41525.5
41926.6
41352.8
39923
39047.4
39183
39440.3
38945.9
37470.6
36341.5
36314.1
36144.9
35503.9
35134.3
34376.2
32600.8
31575.7
31713.3
31553.2
31230.5
31016.8
31002.7
30882.5
30238.6
29286.5
27714.6
26253.8
25854.3
26141.2
26307.3
26006.2
25432.3
24781.8
24026.4
23238
22732.8
22737.4
22724.1
22315.5
22024.9
21515.5
20663
19811.9
18843
18147.7
17372
16500.4
15594.4
14203.7
12786
11000.7
8483.22
6157.16
5344.05
2767.44
50257.9
50437.2
50837.1
51216.2
51640.4
52155.7
52745
53361.4
53813.4
53830.9
53724.2
53771.3
53965.8
54533.2
55312.1
56000
56495.9
56662.8
56637.2
56015.2
55303.5
55445.9
55569.4
55487.5
55263
54454.5
52612.4
50932.9
50690.3
50929.4
50875.6
50593
50189.5
49184.4
48140.1
47597.3
46310.5
45124.4
45231.9
45366.1
44895.3
43954.4
43272.8
42216.1
41225.4
41503.9
41922.1
41368.2
39921.5
39033.8
39184.1
39451.2
38982.7
37479.9
36309
36309.5
36149.1
35488
35125.1
34408.9
32605.9
31557.2
31720.6
31557.7
31233.5
31003.8
30982.6
30870.8
30227.9
29301
27730.8
26257.7
25850.8
26144.3
26311.9
25994.8
25420.1
24779.2
24029.9
23243.1
22724.4
22733.8
22729.7
22306.3
22024.7
21518.3
20660.9
19819.2
18843.9
18156.3
17371.3
16492.9
15600.7
14201
12792.3
11027.2
8513.13
6144.11
5377.9
2833.38
50232.3
50410.4
50820.5
51197.6
51619
52134.2
52721.8
53347.4
53827.1
53842.2
53725.8
53759.3
53927.9
54501.7
55286.6
55975.3
56508.9
56676.5
56673.5
56033.4
55254.2
55437.5
55563.1
55463.3
55272
54540.9
52657.3
50878.9
50653.7
50927.1
50863.6
50578.5
50211.3
49215.2
48125.2
47671.3
46331.2
45066.5
45197.8
45373.2
44927.8
43948.5
43308.4
42247.6
41160.8
41457.1
41935.3
41422.6
39921.1
38998.5
39170
39481.5
39022
37473.5
36257.4
36313.4
36185.5
35473.2
35107
34477.8
32607
31492.7
31726
31562.8
31229.4
30990.5
30978
30880.7
30236.2
29340.9
27745.7
26234.5
25819.9
26126.8
26293.8
25981.6
25438.7
24799.9
24024.9
23243.7
22705.9
22719.9
22752.1
22293.6
22035
21540.2
20665.8
19833.7
18830.5
18150.9
17403.5
16490.8
15631.5
14198.5
12803.7
11076.3
8534.36
6108.84
5393.3
2918.37
50256.1
50418.5
50839.8
51212.4
51627.6
52141.2
52726.6
53366.7
53881.4
53878.7
53716.7
53727.9
53881.4
54513.8
55284.2
55964.4
56537.8
56739.9
56669.5
56044.1
55243.7
55455.1
55557.1
55391.3
55330.2
54727.6
52680.3
50789.3
50635
50930.4
50799.4
50569
50319.7
49241.1
48041.1
47687.8
46420.4
44983
45173.6
45398.5
44985.5
43932.4
43223.7
42234.9
41149.8
41424.8
41984.3
41475.4
39927.9
38982
39096.5
39515.4
39006.4
37407.4
36269.8
36350.7
36242.4
35447.8
35093.2
34495.9
32566.8
31475
31770.6
31575.4
31177.9
31016.8
31024.3
30927.6
30250.4
29310.3
27723.2
26260.3
25787.6
26077.5
26267.9
25987.7
25521.9
24846.1
24025
23214.7
22673.7
22702.2
22786.9
22301.4
22037.4
21620.7
20671.1
19850.5
18808.7
18080.4
17329.7
16544
15699.8
14183.9
12783.4
11148.3
8532.23
5963.97
5339.77
2963.03
50347.8
50474.9
50905.8
51270.1
51674.6
52184.5
52765
53414.2
53943.5
53914.9
53675.7
53621.6
53933.5
54573.2
55313.1
55965.5
56510.1
56733.7
56613.8
56034.3
55338
55474
55541.1
55354.2
55466.1
54793.9
52579
50699.2
50692.4
50958.7
50765.4
50592.7
50427.6
49132.3
47909.8
47746.3
46456.4
44978.9
45214.8
45446.9
45066.1
43894.1
43042.7
42173.6
41197.8
41438.6
42082.5
41592.6
39951.5
38951.9
38989.2
39447.9
38893.5
37366.5
36357.9
36424.4
36200.6
35366.8
35194.9
34450.7
32475.6
31545.6
31889.7
31608.4
31033.6
30979.3
31110.4
30938.8
30319.2
29274.9
27746.6
26290.9
25759.9
26038.6
26236
25967
25532.7
24975.7
24056
23183.1
22633.2
22699.6
22851.2
22293
21941.2
21628.2
20652.4
19815.5
18928.8
18030.5
17310.1
16573.4
15763.6
14212.5
12660.9
11181.3
8586.58
5804.24
5156.82
2903.09
50513.6
50585.8
51023.2
51375
51763.7
52266.9
52835.9
53467.4
54019.2
53923.5
53557.7
53657.3
54032.4
54662.9
55369.6
55991.7
56501.2
56782.5
56572.5
56020.1
55396
55378.8
55485.2
55448.8
55586.5
54690.4
52417.9
50745.4
50789.1
50938.4
50676.4
50673.5
50405.8
48997.3
47820.2
47705.3
46482
45066.1
45303.2
45461.8
45079.6
43921.8
42779.4
42071.1
41333.2
41482.7
42102.5
41700.3
40079.9
38944.4
38878.4
39245.3
38774.2
37446.7
36503.6
36518.4
36150.6
35226.3
35206.7
34416.5
32476.7
31647.3
32069.8
31663.3
30872.1
30882.1
31111.2
30931.9
30334.3
29296.2
27816.2
26357.9
25760.1
26018.9
26106.4
25885
25576
25092.1
24241.3
23190.3
22593
22713.5
22943.6
22317
21828.8
21580
20560.8
19779.5
18972.9
18120.6
17319.4
16597.6
15761.7
14160.6
12609.9
11094.5
8517.04
5657.18
4877.83
2722.72
50748
50749.2
51189.8
51525.3
51893.6
52387.7
52940.1
53534.9
54023.7
53909.9
53597.2
53746.4
54154.9
54770
55446.2
56040.2
56521.3
56850
56562.2
56012.5
55469.2
55276.8
55463.4
55523
55592
54473.7
52297.5
50899.5
50947.9
50941.7
50618
50602.1
50331
48949.1
47751.1
47582.5
46468.1
45217.5
45311.5
45416.9
45143
43946.4
42651.1
42054.1
41480.4
41535.5
42120.8
41695.5
40156.2
39038.2
38814.4
39086.1
38662.8
37469.5
36545.4
36514.4
36083.3
35181.7
35118
34406.1
32604.5
31758.4
32229.8
31722.1
30749.7
30797.6
31086.5
30919.8
30288.3
29293
27817.8
26382.6
25868.8
26019.4
26017.6
25914.2
25607.7
25105.3
24331.1
23224.3
22621.1
22760.8
22957.5
22329.7
21847.7
21532.8
20494.3
19796.3
19037.6
18214.8
17333.6
16614.9
15779
14053.5
12460.7
11023.2
8419.08
5494.59
4517.44
2429.7
51036.4
50956.4
51396.5
51713
52057.4
52540.6
53071.5
53620.9
54013.1
53922.5
53708.2
53870.6
54294.6
54887.3
55534.3
56100.1
56542.9
56833
56511.7
55980.8
55488.4
55315.5
55435.7
55489.8
55405.6
54305.8
52296.6
51079.3
51124.9
50963.9
50551.5
50508.8
50160.6
48877.2
47789
47534.1
46479.3
45320.5
45312.9
45371.6
45071.7
43920.1
42654.2
42084.9
41633.8
41602.7
42074.9
41637.7
40207.4
39150.9
38820.5
39001.9
38576
37498.6
36591
36377.2
36005.3
35237.3
35049
34418.2
32731.1
31846.9
32281.7
31728.3
30709.3
30778.8
31097.5
30926.8
30230.8
29156.6
27781.4
26481.1
26020.4
26098.7
25953.8
25931.6
25669.3
25144.3
24348.8
23199.2
22728.1
22829.6
22931.3
22353.9
21871.1
21438.8
20506.5
19826.3
19088.5
18279
17373.6
16550.9
15716.3
13980.8
12271.5
10796.8
8271.23
5370.3
4087.31
2051.71
51359.8
51194.2
51629.6
51926.3
52245.7
52716.7
53216.4
53723.6
54045.1
53970.7
53839.2
54013.3
54441
55006.3
55625.8
56164.5
56566.1
56780.8
56492.7
55999
55537.2
55359.4
55411.1
55438.9
55241.5
54147.7
52315.8
51248.1
51224.7
50929.5
50579
50460.7
50014.6
48801
47816.8
47515.8
46546.9
45392.3
45325.1
45315.6
44920
43852.4
42719.9
42162.5
41747.1
41648.6
41980.8
41545.1
40305.2
39275.4
38857.9
38961.8
38521.4
37514.1
36622
36264
35924
35289.3
34993.5
34324.4
32812.3
32003.2
32249.5
31686.4
30742
30824.1
31137.2
30951.6
30229.6
29016
27696.7
26559
26160.6
26093.4
25931.5
25913.8
25675.6
25135.8
24326.2
23288.6
22846.6
22912
22930.5
22385.9
21882.9
21391
20527.3
19847.5
19105.9
18264.8
17330.9
16520.9
15584.9
13881.4
12150.8
10594.6
8115.21
5259.13
3627.62
1654.76
51700.3
51449.6
51873.7
52150.4
52444.9
52901.5
53367.7
53821.5
54108.2
54056.8
53976
54165.2
54581.7
55120
55713.4
56226.6
56591.7
56748
56483.1
56017.8
55578.6
55395.2
55389.1
55393.9
55107
53990.7
52316
51357.6
51221.4
50945.9
50617.9
50438.3
49903
48737.8
47825.5
47452.6
46508.9
45500.4
45351.7
45266.8
44788
43782
42780.5
42255.4
41826.9
41670.5
41924.9
41488.1
40330.6
39349.3
38941.4
38950.5
38484.5
37524.7
36643.5
36176.4
35858.5
35329.5
34952.1
34236.1
32873.5
32135.5
32208.8
31641.6
30766.6
30879.7
31182.7
30932.5
30150.1
28949.3
27627
26614.1
26281.2
26133.7
25906.2
25913.1
25737.7
25130.2
24314.1
23374.1
22958
22988.4
22926.8
22413.9
21902.6
21349.4
20533.2
19858.9
19091.5
18237.3
17319
16459.8
15446.3
13767.3
12035.5
10400.6
7973.17
5189.32
3202.83
1286.3
52042.4
51710.7
52117.5
52376.8
52649.6
53082.6
53523.1
53934
54191.6
54158.5
54107.5
54300.5
54705.8
55224.8
55790.1
56279.5
56614.1
56731
56477.9
56029.5
55609.6
55420.3
55366.2
55352.8
54997.2
53863.7
52325.4
51444.2
51258.5
50959.6
50640.4
50408
49812.3
48693.2
47830.9
47402.5
46514.9
45595.8
45379.1
45221.8
44687.4
43728
42836.4
42340.5
41882.7
41668
41891.6
41455
40337.9
39421.8
39009.5
38942.7
38451.6
37530.7
36645.4
36102.5
35821.8
35365.2
34921.5
34175.7
32926.2
32233
32179.1
31592.9
30770.5
30933.8
31224.2
30909.6
30120.4
28895.4
27581.7
26679.8
26380.9
26157.5
25875.8
25930.2
25803.4
25133
24305.7
23444.2
23058.1
23052.2
22927.1
22427.4
21910.4
21313.3
20527.2
19859.3
19065.2
18200.1
17286
16378.7
15300.9
13636.8
11897.3
10203.1
7840.56
5129.66
2791.27
932.1
52374.4
51967.9
52351.8
52595.8
52849.7
53257.7
53675.1
54050.8
54284.5
54265.2
54232.2
54422.9
54814.6
55314.5
55853.6
56321.1
56631.1
56720.6
56474.2
56035.6
55628.8
55432.8
55337.3
55311.8
54907.4
53772.1
52352.2
51524.5
51293.6
50963.5
50645.8
50362.3
49732.1
48663.5
47838.1
47372.4
46524.1
45672.7
45397.3
45174.8
44609.8
43699.9
42897.5
42414
41914.7
41651.1
41871.9
41443.2
40350.8
39488.6
39057.9
38926.5
38411.6
37522.4
36627.2
36036.2
35815.5
35406.5
34902.5
34142.7
32977
32304.6
32151.7
31538.2
30760
30986.6
31258.2
30884.4
30095.4
28853.1
27561.1
26750.3
26469.7
26168.8
25838.3
25958.3
25874.3
25136.7
24302
23511.8
23148.2
23105.3
22926.8
22426.9
21903.1
21274.1
20510.6
19849.5
19028.1
18149.9
17228.8
16274.7
15142
13484.5
11734.8
9994.36
7692.07
5042.21
2334.97
554.33
52687.7
52215.7
52572.6
52804.6
53042.8
53425.7
53820.6
54164.5
54377.6
54370
54348.7
54531.3
54905.5
55386.2
55901.2
56350.2
56641.8
56710
56468
56036.7
55636.9
55436.7
55298.1
55266.6
54828.6
53703.8
52397.8
51602.6
51328
50963.9
50641
50300.2
49651.3
48643.5
47848
47355.1
46539
45742.3
45405
45123.5
44543.6
43691.9
42970.1
42484.8
41931.5
41615.2
41861.4
41450.2
40369.7
39556.2
39096.4
38899.8
38357.2
37497.3
36600.4
35968.7
35831.1
35460.2
34890.5
34129.2
33027.6
32364.6
32120.2
31478.1
30742
31044.4
31288.6
30848.8
30076.7
28821.3
27551.5
26824.2
26558.4
26174.8
25790.2
25998.5
25959.9
25131.8
24294.4
23585.7
23238.2
23151
22919.2
22412.8
21883.7
21224.9
20484.9
19835.6
18982.6
18089.3
17152.5
16150.1
14967.3
13312.3
11548.8
9767.25
7521.05
4912.75
1827
145.883
52973.3
52446.3
52776.6
53001.2
53228.5
53588.9
53962
54276.2
54470
54472.5
54457.8
54625.2
54979.9
55440.8
55933.5
56368.4
56646.5
56697.4
56461.2
56040.7
55642.3
55437.3
55240.9
55204.8
54748.5
53650.9
52468.1
51683.9
51362.3
50959.2
50627.8
50219.7
49568
48630.6
47864.1
47348.8
46557.3
45812.8
45402.3
45067.5
44479.8
43693.8
43059.4
42561.3
41942.5
41553.7
41850.2
41476
40393
39635
39131.8
38861.8
38285.4
37456.2
36573.5
35888.2
35865.4
35537.7
34880.8
34130
33080.4
32423.7
32077.3
31415
30718.1
31108.3
31315
30798.4
30067
28798.4
27547.4
26902.4
26653.3
26180.7
25725.7
26052.5
26073.6
25113.3
24275.4
23674
23338.1
23189.3
22895.7
22381.6
21855.6
21160.8
20451.2
19826.3
18939.7
18019.7
17061.3
16020.3
14769.4
13107.3
11337.9
9521.25
7326.31
4736.14
1310.57
-254.63
53224.3
52652.4
52956.2
53174.9
53394.7
53736.4
54089.9
54378.2
54555.7
54568.4
54557.2
54704
55038.7
55479.7
55951.2
56377.4
56647.5
56684.7
56456.5
56058.2
55674.8
55443.4
55170.5
55133.7
54621.6
53606.6
52567
51768.3
51401.3
50948.2
50604.1
50120.3
49489.7
48636.6
47910.7
47336.6
46584.2
45892.2
45394.5
45016.1
44418.8
43700.3
43202.5
42637.3
41965.8
41484.4
41820.9
41492.9
40415.9
39731
39170.3
38820.6
38205.7
37412
36562.9
35804.9
35899
35623.5
34866.9
34142.6
33138.3
32482.6
32033.5
31367.9
30697.8
31192.4
31310.7
30716
30077.4
28787.2
27544.9
26983.8
26756.6
26200.8
25660.9
26109.9
26204.6
25084.9
24244.6
23771.6
23457
23225.6
22848.2
22317.3
21819.5
21097.8
20460.7
19816
18889.4
17940.2
16967.1
15884.1
14569.6
12900
11115.8
9271.55
7120.79
4534.59
837.565
-618.142
53436.1
52830.2
53108.9
53322.9
53537
53863.4
54199.2
54464.1
54627.5
54648.5
54635.8
54757.2
55072.6
55495.8
55949.7
56375.3
56644.4
56672.3
56452.5
56077.5
55710.3
55459.5
55172.9
55001.6
54410.9
53599.5
52694.1
51846
51416.5
50949.2
50576.8
49984.2
49432.1
48747.4
47872.5
47231.7
46607.5
45991.4
45399.7
44993.7
44380.1
43773.8
43243.5
42654.5
42019.5
41475.9
41755.4
41404.3
40425.3
39849.7
39204.8
38784
38158.8
37391.8
36584.2
35820.7
35891.4
35560.2
34832.9
34213.4
33206.4
32521.1
32010.9
31377
30776.8
31212
31130
30607.4
30138.4
28805.9
27553.1
27061.9
26853
26253.9
25711.1
26134.2
26209.8
24998.9
24190.1
23900.5
23589.7
23246.5
22811.1
22246
21761.2
21094.6
20388.2
19743.8
18821.3
17857.1
16871.4
15752.3
14384.2
12709.6
10909.7
9031.82
6917.81
4338.25
440.427
-926.086
53605.9
52977
53233.5
53443.4
53652.9
53967.7
54288
54531.4
54682.7
54710.1
54690.7
54782.2
55079.8
55488.4
55928.8
56363.2
56638.8
56660.3
56447.8
56096.1
55738.6
55463.6
55165.9
54915.2
54329.5
53523.3
52704.7
51901
51435.9
50965.6
50551.2
49832.7
49389.1
48868.3
47918.2
47140.3
46652.6
46104.1
45445.5
45006.2
44409.9
43757.1
43209.8
42659.5
42094.9
41586
41679.8
41166.5
40425
39966.1
39237
38760.2
38135.8
37392.3
36644
35953.7
35856.9
35344.5
34783.4
34298.6
33279.8
32576.5
32032.4
31462.1
30959.6
31139.4
30751.5
30480.1
30258.1
28873.1
27680.2
27105.5
26828.9
26328.4
25893.9
26125.1
26047.2
24868.5
24094.8
24027.5
23741.2
23264.2
22780.5
22227
21708.3
21041.6
20357
19686.8
18766.8
17781.5
16764.4
15611.5
14218.7
12543.3
10727.4
8824.88
6745.86
4175.45
135.791
-1168.7
53733.1
53091.6
53329.4
53535.7
53741.1
54048.4
54355.5
54578.7
54720
54752.3
54720.8
54776.9
55059.8
55457.7
55889.1
56342.8
56631.7
56647.5
56440.1
56106.3
55754.3
55457.1
55142.1
54836.7
54273.2
53503.3
52709.2
51954.8
51462.8
50982.1
50534.6
49848.6
49368.7
48826.6
47939.6
47177.7
46627
46116.2
45474.7
45007.9
44425.6
43775.2
43213.3
42682.2
42131.6
41660.8
41610.5
41099.6
40409.5
39931
39247.3
38743.1
38131.3
37403.4
36685.6
36050.6
35821.1
35301.4
34753.3
34245
33326.9
32639.3
32070.9
31538
31088.7
31077.2
30547.5
30388.6
30249.7
28924
27800.5
27183.4
26819.7
26370.3
26034.6
26094.8
25904.4
24898.3
24024.4
23991.4
23859.1
23274.5
22751.2
22209.3
21682.4
21011.3
20315.7
19614.4
18703.7
17712.4
16669.8
15490.4
14082.2
12409.4
10585
8670.34
6623.88
4064.92
-67.28
-1341.32
53818.3
53172.9
53396.6
53600.2
53801.4
54105.5
54402.3
54605.8
54738.9
54775.3
54726.1
54740.5
55013.1
55404.4
55831.4
56316.8
56625
56633.8
56428.4
56107.5
55759.2
55443.6
55110.4
54767.4
54218.5
53486.3
52724.1
52006.9
51492.8
50998.6
50523.9
49879.1
49350.9
48773.9
47957.5
47228.5
46655.5
46123.6
45508
45003.2
44418.3
43790
43234.9
42709.4
42172.7
41701.8
41539
41061.8
40410.9
39896.5
39259.9
38734.7
38130
37424.8
36725.5
36094.8
35778.2
35289.5
34740.5
34201.2
33376.2
32704.8
32137.7
31605.9
31143.3
31018.8
30559.6
30326.5
30080.3
28934.3
27892.2
27264.5
26871.6
26442.6
26089.6
26028.1
25793
24938
24132.2
23978.7
23800.2
23251.4
22715.2
22188.3
21661
20984.2
20277
19549.4
18649.1
17657.1
16597.2
15399.2
13982.6
12317.6
10494.3
8579.55
6564.23
4018.8
-167.612
-1443.26
53864.7
53221.9
53436.8
53638.3
53834.7
54140.1
54429.7
54613.5
54740.7
54781.1
54708
54672.8
54941.3
55330.7
55756
56286.9
56620.1
56618.8
56413
56102
55756.2
55425.2
55076.1
54705.9
54168.5
53471.3
52741.9
52054.8
51523.2
51015.1
50516.8
49892.9
49333.4
48739.4
47975.9
47271.6
46684.9
46137.6
45532.7
44995.9
44412
43805.8
43259.6
42736.1
42204.7
41725.6
41481.2
41023.9
40411.2
39882.2
39274.4
38732.2
38129.1
37439.8
36749.6
36119.9
35745.1
35276
34734.6
34183.9
33427
32768.5
32196
31654
31180
30981.7
30575.3
30273.3
29933.7
28937.3
27972.1
27344.1
26928.6
26498.9
26117.4
25973.1
25709.4
24963.4
24235
23981.1
23740.3
23232.3
22700.9
22169.8
21624.4
20955.5
20244.8
19500
18608.8
17619.5
16549.7
15341.5
13924.9
12274.5
10462.5
8558.86
6574.64
4043.26
-174.983
-1479.01
53881.1
53244.3
53455.9
53655.5
53844.3
54155.6
54440.6
54603.9
54727.6
54773
54669.4
54574.4
54846.7
55237.6
55662.4
56255.3
56617.9
56601.8
56393.4
56090.6
55747.3
55403.9
55041.4
54651.1
54122.9
53457.7
52759.2
52097
51552.2
51030.7
50512.2
49898.7
49318.4
48715.2
47992.9
47309.1
46713.4
46151.9
45549
44990.1
44409.4
43822.5
43283.9
42760
42227.5
41741.3
41437.3
40990.2
40410.1
39876.5
39288.1
38733.2
38128.3
37447.7
36761.9
36137.5
35722.9
35263.8
34732.6
34179.6
33474.7
32826.9
32243.2
31689.9
31210.6
30955.8
30570.2
30222.5
29824.1
28936.5
28043
27420.2
26980.8
26539.7
26139.1
25933
25644.3
24980.3
24309.5
23988.9
23703
23218.6
22692.3
22153.9
21593.2
20931.9
20220.9
19466.1
18584
17601.1
16528.7
15318.6
13910.4
12281.6
10490.4
8606.33
6651.48
4133.7
-110.346
-1456.49
53869.2
53242.3
53456.3
53653.4
53834.1
54156.4
54437.9
54579.6
54702.5
54754.7
54614.3
54451.1
54732.3
55115.1
55543.9
56225.3
56619.7
56581.6
56369.1
56073.8
55733.3
55380.7
55007.2
54601.9
54081.6
53444.8
52774.3
52132.6
51578.3
51044.7
50509.1
49900.7
49306.7
48698.2
48007.4
47341.1
46739.6
46165.4
45560.9
44986.9
44409.9
43838.6
43306
42780.5
42245.1
41752.6
41404
40961.2
40407.7
39874.5
39299.4
38735.5
38127.1
37451.9
36769.6
36151.2
35708.6
35253.3
34732.5
34182.1
33516.8
32878.7
32283.8
31720.1
31236.1
30936.6
30556.1
30176.3
29737.8
28933.1
28104.8
27490.2
27028.8
26572.9
26157.7
25903.5
25593
24991.3
24367.1
24000.4
23677.8
23207.7
22685.8
22142.2
21571.1
20915.4
20206.2
19446.7
18574.6
17601.6
16532.9
15328.1
13935.6
12334.8
10572.2
8715.17
6790.31
4289.97
27.6238
-1374.57
53820.9
53213.8
53433
53625.8
53807.3
54142.5
54414.4
54536.3
54662.3
54726.5
54544.6
54324.9
54610.8
54955
55426
56177.7
56626.7
56555.4
56338.5
56050.5
55713.9
55355.3
54973.2
54556.9
54043.8
53431.4
52786
52161.3
51600.5
51056.3
50506.8
49900.7
49297.9
48686.5
48019.5
47367.7
46762.9
46178
45570.5
44986.6
44412.9
43853.5
43325
42797.8
42259.2
41761.3
41379.2
40936.7
40404.1
39874
39308.2
38737.8
38125.7
37454.2
36775.9
36163
35700.3
35244.5
34733
34187.8
33553
32923.6
32319.7
31747.2
31257.6
30922.7
30538.6
30135
29669
28928.3
28157.5
27552.7
27072.5
26601.7
26174.5
25882.3
25552.7
24998.3
24412.6
24014.2
23661.1
23199
22681.5
22134.9
21557.1
20906.4
20201
19441.3
18580.3
17620.2
16561.1
15368.4
13998
12431.2
10705.5
8884.07
6994.13
4520.36
264.226
-1223.41
53732.2
53152.4
53382.5
53576.1
53752.8
54102.4
54375.5
54472.9
54604.8
54688
54455
54170.1
54474.5
54873
55208.7
56062.6
56613.7
56517.3
56298.6
56019.6
55688.5
55327
54938.7
54514.9
54008.5
53417
52793.5
52183.1
51618
51065.3
50504.8
49899.5
49291.5
48678.6
48029.4
47389.4
46782.7
46189.4
45579
44988.8
44417.7
43866.6
43340.9
42812.1
42271.1
41768.6
41360.9
40916.1
40399.4
39873.5
39314.4
38739.6
38124.4
37456
36782.3
36174.3
35696.4
35237.3
34733.3
34194.5
33583.2
32961.7
32351.7
31772.4
31276.6
30912.7
30520.4
30098.9
29614.4
28923.3
28201.5
27606.9
27111.5
26627.7
26190.2
25867.7
25521.7
25002.7
24448.7
24029
23650.9
23192.5
22679.3
22131.7
21550.2
20904.6
20204.6
19448.4
18600
17655.4
16610.9
15436.5
14094.3
12567.8
10887.1
9110.13
7260.28
4824.69
613.623
-997.141
53604.7
53055
53303.8
53498.8
53673.1
54041.1
54317.3
54392.2
54551
54643
54331.7
53984
54317
54779.1
55099.5
55904.5
56511.5
56456.2
56246.6
55979.8
55656.5
55295.1
54903.2
54474.6
53974.3
53400.9
52796.1
52197.7
51630.4
51071.1
50502.5
49897.6
49286.9
48673.5
48037
47406.3
46798.9
46199.6
45587
44993.1
44423.8
43878
43353.6
42823.7
42281.4
41775.3
41347.8
40899.1
40394
39872.4
39318.1
38740.7
38123.3
37458
36789.6
36185.8
35695.4
35231.3
34732.8
34200.7
33607.7
32993.5
32380.3
31796.2
31294
30905.8
30503.1
30067.8
29571.4
28918.6
28237.5
27652.6
27145.7
26651.4
26205.4
25858.5
25498.2
25005.4
24477.2
24043.5
23645.6
23188.2
22678.9
22131.9
21549.3
20909
20215.7
19465.8
18631
17704
16677.8
15526.1
14216.7
12734.5
11104.8
9379.41
7574.4
5192.12
1077.48
-694.787
53441
52923
53197.3
53394.2
53575.2
53962.5
54251
54307.3
54469
54587.7
54211.8
53782.9
54126
54640.9
55035.4
55746.7
56333.1
56371.9
56181.9
55930.6
55617.5
55259
54865.9
54434.7
53940.4
53382.5
52793.4
52205.2
51637.3
51073.6
50499.3
49895
49283.3
48670
48042.6
47419
46811.6
46208.4
45595
44999.2
44430.6
43887.4
43363.4
42833
42290.7
41781.7
41338.7
40885.1
40388.1
39870.3
39319.7
38740.8
38122.4
37460.7
36798.1
36197.6
35696.6
35226.4
34731.4
34205.5
33626.7
33019.6
32405.7
31818.9
31310.4
30901.6
30487.7
30041.7
29538.1
28914.8
28266.2
27690
27175
26673.3
26220.3
25853.6
25480.9
25007.2
24499.4
24057
23643.8
23186
22680.1
22134.9
21552.8
20918.3
20232.3
19490.5
18670.1
17761.7
16756
15629.8
14355.2
12919.2
11343.1
9673.04
7915.68
5603.39
1650.53
-318.733
53243.5
52763.1
53061.8
53263.8
53473
53870.2
54153.2
54205.4
54372.2
54529.1
54090.5
53564.9
53918
54486.8
54943.5
55605.4
56157
56259.5
56103.6
55871.7
55570.9
55218
54825.9
54394.3
53906.2
53361
52785.2
52205.9
51638.8
51072.6
50495
49891.8
49280.1
48667.3
48046.1
47427.9
46821
46215.9
45602.8
45006.3
44437.8
43895.2
43370.7
42840.4
42299.1
41788.1
41332.7
40873.8
40381.8
39867.1
39319.4
38740.2
38121.8
37464.1
36807.7
36209.8
35699.2
35222.3
34729.2
34208.5
33640.9
33040.4
32428.1
31840.3
31326
30899.7
30474.9
30020.4
29512.6
28911.8
28288.5
27719.7
27199.7
26693.4
26234.8
25852
25468.8
25008.4
24516.3
24069
23644.3
23185.3
22682.4
22139.6
21559.3
20930.5
20252.3
19519.5
18713.4
17823.5
16839.2
15739.4
14499.7
13109
11585.7
9970.58
8260.62
6029.63
2321.36
123.748
53013.4
52581.8
52904.7
53108.6
53347.1
53764.9
54046.3
54093.8
54271.6
54474.8
53980.8
53352.7
53705.7
54344.9
54829.1
55444.2
55989.6
56139.4
56017.5
55806.6
55519.4
55174.1
54785
54355
53872.6
53337.9
52773
52201.3
51636
51068.8
50489.6
49887.9
49277
48664.9
48047.8
47433.4
46827.4
46221.8
45610.1
45013.8
44444.6
43901.2
43375.8
42846.1
42306.8
41794.3
41329.1
40865
40375.6
39863.1
39317.5
38738.6
38121.1
37467.9
36817.7
36221.6
35702.8
35219.2
34726.4
34209.6
33650.3
33056
32446.9
31859.5
31340.2
30899.6
30465
30003.8
29493.8
28909.5
28304.9
27742.1
27219.7
26711.3
26248.4
25852.8
25460.7
25009.1
24528.7
24078.8
23646
23185.6
22684.8
22144.7
21566.7
20943.3
20272.4
19548.4
18755.4
17882.6
16918.5
15843.6
14636.3
13286.9
11811.9
10247.3
8581.17
6439.15
3062.31
616.515
52756.6
52384.8
52732.7
52941.4
53208
53655.2
53942.3
53981.9
54172.4
54430.2
53895.7
53186.8
53471.4
54178.1
54692.1
55284.1
55825.1
56004.2
55922.3
55734.3
55462
55126.2
54742.3
54315.5
53838.6
53312.7
52756.8
52191.7
51628.8
51061.9
50482.7
49883
49273.5
48662.2
48047.8
47436.2
46831.2
46226.1
45616.5
45020.9
44450.8
43906.2
43379.6
42850.7
42313.5
41800
41327.4
40858.5
40369.8
39858.4
39314.3
38736.1
38120.2
37471.7
36827.4
36232.9
35707.3
35217.6
34723.7
34209.2
33655.8
33067
32462
31876.4
31353.2
30901.1
30458.3
29991.6
29480.4
28907.6
28316.4
27758.5
27235.4
26726.9
26261
25855.4
25456.2
25009.7
24537.5
24086.5
23648.1
23186.2
22686.9
22149.3
21573.9
20955.2
20290.8
19574.7
18793.2
17935.3
16989.1
15936.2
14757.2
13443.5
12009.8
10487
8855.07
6799.45
3818.24
1133.54
52481.8
52179
52549.9
52765.1
53057.4
53539.8
53840.1
53870.5
54074.1
54398.7
53839.1
52963.4
53216.1
53984.6
54528.7
55113.9
55654.3
55860.7
55817
55653.1
55397.5
55073.1
54696.3
54274.2
53803
53284.9
52737
52178
51618.2
51052.6
50474.2
49876.8
49269.2
48658.8
48046.5
47437.1
46833.1
46229.1
45622
45027.4
44456.5
43910.4
43382.6
42854.3
42319.5
41805.5
41326.9
40853.6
40364.5
39853.4
39310.2
38732.9
38119
37475.4
36836.7
36243.6
35712.4
35216.9
34721
34207.5
33658.3
33074.5
32474.4
31891.5
31365.6
30904.2
30454
29982.5
29470.3
28905.6
28324.3
27770.8
27248.3
26740.7
26272.6
25859.1
25453.9
25010
24543.7
24092.4
23650.1
23186.8
22688.5
22152.8
21579.8
20965.2
20306.1
19596.8
18824.8
17979.2
17048
16013.8
14858.7
13575.1
12176.4
10688.2
9084.78
7119.63
4555.73
1634.3
52197.6
51970.4
52360.5
52581.3
52899.9
53425.6
53746.1
53761.6
53980.2
54402.1
53816.2
52748.5
52926.1
53794.2
54348
54942.5
55477.4
55711.6
55704
55565.4
55328.1
55016.5
54648.1
54231.6
53766.2
53255.5
52715.1
52162.1
51605.5
51041.7
50464.5
49869.5
49263.9
48654.7
48044.3
47436.7
46833.8
46231
45626.3
45032.9
44461.6
43914.3
43385.1
42857.3
42324.9
41810.7
41327.2
40849.8
40359.5
39847.9
39305.3
38728.9
38117.3
37478.8
36845.7
36254.1
35718.3
35216.8
34717.9
34204.3
33658.4
33079.4
32484.7
31905.5
31378.1
30908.6
30451.2
29974.8
29461.4
28903
28329.9
27780.6
27259.1
26752.9
26283.5
25863.3
25452.2
25009.9
24548.3
24097.2
23651.6
23186.8
22688.9
22154.8
21583.8
20972.4
20317.6
19613.5
18848.8
18012.9
17093.6
16074.4
14939
13681
12312.4
10853.8
9278.25
7420.93
5307.7
2130.56
51914.8
51768
52175.4
52399
52742.4
53319.4
53670.8
53658.5
53894.2
54465.1
53820.7
52503.7
52578.7
53509.4
54179
54775
55301.7
55559.9
55586.2
55473
55254.8
54956.9
54597.7
54187.4
53728
53224.4
52691.3
52144.1
51591
51029.1
50453.7
49861.2
49257.7
48650
48041.3
47435.4
46833.6
46232
45629.7
45037.8
44466.4
43918
43387.4
42859.9
42329.8
41815.9
41328.1
40846.7
40354.7
39842.2
39299.8
38724.4
38115.4
37482.2
36854.6
36264.6
35724.5
35217
34714.5
34200.1
33656.7
33082.5
32493.7
31919
31390.9
30914
30449.4
29968
29453.1
28899.8
28334.1
27788.9
27268.5
26764.2
26294.2
25867.8
25450.8
25009.4
24551.9
24101.1
23652.8
23186.2
22688.5
22155.5
21586.2
20977.4
20325.9
19625.7
18866.7
18038.3
17128.4
16121.6
15003.1
13767.9
12427.3
10997.6
9458.47
7744.43
6153.54
2706.11
51646
51582.7
52006.8
52225.5
52587.6
53213.8
53601.4
53572
53825.2
54598.3
53856.3
52242.9
52228.6
53277.6
54016.3
54619.4
55138.2
55415.9
55471.9
55382.7
55183
54898.8
54548.9
54145
53691.4
53194.4
52667.9
52126.2
51576.2
51016.4
50442.7
49852.6
49251.3
48645.1
48038
47433.5
46832.6
46232.2
45632.1
45042
44470.7
43921.4
43389.3
42861.9
42334.2
41820.8
41329.5
40844.5
40350.3
39836.6
39294
38719.4
38113.1
37485.2
36863
36274.7
35730.9
35217.6
34711.2
34195.3
33653.7
33083.9
32501.1
31931.4
31403.3
30919.8
30448.3
29962
29445.7
28896.7
28337.3
27795.6
27276.4
26774.1
26303.9
25872.1
25449.8
25008.8
24554.6
24104.1
23653.4
23185.2
22687.3
22155.1
21587.1
20980
20330.8
19633.4
18878.2
18055.1
17152.1
16154.8
15050.4
13835.3
12520.7
11120.9
9632.64
8106.76
7065.79
3379.91
51407.2
51426
51868.4
52076.9
52442.6
53112.1
53490
53480.2
53823
54749.2
53859.5
51980.9
51976.6
53086.6
53874.4
54484.5
54998.3
55291.2
55371.6
55302.9
55119.5
54847.4
54506
54107.8
53659.2
53167.9
52647.1
52109.9
51562.7
51004.7
50432.6
49844.6
49245.3
48640.5
48034.8
47431.4
46831.1
46231.8
45633.9
45045.3
44474.4
43924.3
43390.8
42863.5
42337.9
41825.2
41331.2
40842.9
40346.5
39831.2
39288.3
38714.3
38110.7
37487.9
36870.7
36283.9
35737
35218.4
34708
34190.3
33649.7
33083.9
32506.8
31942.3
31414.5
30925.5
30447.7
29956.9
29439.3
28893.6
28339.5
27800.8
27282.7
26782.5
26312.4
25876
25448.9
25008.1
24556.5
24106.2
23653.5
23183.7
22685.4
22153.7
21586.5
20980.6
20332.6
19636.6
18883.6
18063.5
17164.7
16173.9
15080
13881.2
12588.9
11217.8
9787.55
8458.54
7902.37
4045.04
51213.1
51309
51767.7
51960.5
52321.3
53010.6
53375
53409.9
53857.2
54877.3
53849.2
51787.5
51810.2
52946.4
53764.8
54379.5
54889.2
55192.7
55291.6
55238.9
55068.4
54806.1
54471.4
54077.7
53633.1
53146.3
52630.1
52096.4
51551.4
50994.8
50423.9
49837.8
49240.1
48636.6
48031.9
47429.3
46829.6
46231.1
45635
45048
44477.5
43926.7
43392
42864.7
42340.9
41829
41332.9
40841.9
40343.3
39826.4
39282.9
38709.6
38108.3
37490.1
36877.3
36292
35742.4
35219.3
34705.3
34185.5
33645.4
33083
32511.3
31951.5
31424.3
30930.7
30447.4
29952.6
29433.8
28890.9
28341
27804.5
27287.5
26789.3
26319.4
25879.2
25448.3
25007.3
24557.7
24107.6
23653.3
23182
22683.2
22151.8
21584.9
20979.5
20332
19636.4
18884.1
18065.2
17168.3
16181.2
15094.3
13907.7
12633.1
11288.2
9918.13
8768.24
8562.4
4571.32
51075.3
51233.4
51697.1
51884.1
52250.8
52948.8
53285.9
53351.4
53893.5
54949.1
53825.2
51653.3
51709.7
52858.5
53693.8
54309.7
54814.3
55123.6
55234.9
55193.5
55032.2
54776.7
54446.7
54056
53614.1
53130.5
52617.6
52086.5
51543.1
50987.4
50417.4
49832.5
49236.1
48633.5
48029.6
47427.5
46828.1
46230.4
45635.6
45049.8
44479.8
43928.5
43392.9
42865.7
42343.4
41832.2
41334.5
40841.3
40340.7
39822.4
39278.3
38705.4
38106.3
37491.9
36882.7
36298.4
35746.7
35220
34703
34181.2
33641.3
33081.7
32514.5
31958.8
31432.2
30935
30447.2
29949.1
29429.4
28888.6
28341.8
27807.1
27291
26794.4
26324.8
25881.7
25447.7
25006.6
24558.5
24108.5
23652.9
23180.4
22681.1
22149.6
21582.8
20977.6
20330
19634
18881.3
18062.1
17165.4
16179.7
15096.9
13918.3
12656.8
11335.4
10023.6
9016.3
9002.44
4888.18
50998.8
51189.1
51639.8
51855.6
52245.9
52935.5
53223.5
53312.1
53934.7
54962.2
53789.7
51585.5
51666.1
52818.5
53660.8
54274.9
54772.6
55083.6
55202.1
55167.3
55011.4
54759.8
54432.3
54043.2
53602.7
53121
52610.1
52080.7
51538.1
50982.9
50413.3
49829
49233.4
48631.4
48028
47426.2
46827
46229.7
45635.8
45051
44481.3
43929.7
43393.5
42866.3
42345.2
41834.6
41335.9
40841
40339
39819.5
39274.9
38702.2
38104.6
37493
36886.5
36303
35749.8
35220.5
34701.2
34177.8
33637.9
33080.4
32516.6
31964.1
31438
30938.1
30447
29946.4
29425.9
28886.5
28342.1
27808.5
27293.2
26798
26328.5
25883.4
25447.1
25006
24558.9
24109.1
23652.5
23179
22679.3
22147.7
21580.8
20975.3
20327.2
19630.4
18876.7
18056.3
17158.5
16172.3
15090.9
13916.5
12663.4
11362.1
10102.9
9193.14
9218.04
4979.65
50979.8
51182
51612.7
51852.4
52270.8
52937.1
53197.4
53318.9
53983.9
54935.3
53750.5
51587.7
51668.1
52813.9
53658.2
54269.7
54759.7
55069.5
55191
55159
55005.2
54754.8
54427.8
54038.8
53598.5
53117.5
52607.6
52078.8
51536.5
50981.2
50411.6
49827.5
49232.1