/*--------------------------------*- C++ -*----------------------------------*\
| =========                 |                                                 |
| \\      /  F ield         | foam-extend: Open Source CFD                    |
|  \\    /   O peration     | Version:     5.0                                |
|   \\  /    A nd           | Web:         http://www.foam-extend.org         |
|    \\/     M anipulation  |                                                 |
\*---------------------------------------------------------------------------*/
FoamFile
{
    version     2.0;
    format      ascii;
    class       volScalarField;
    location    "0.045";
    object      pd;
}
// * * * * * * * * * * * * * * * * * * * * * * * * * * * * * * * * * * * * * //

dimensions      [1 -1 -2 0 0 0 0];

internalField   nonuniform List<scalar> 
4000
(
50303.1
50476.9
50870.9
51250.9
51675.5
52190.8
52782.6
53398.4
53837.9
53846.1
53731.9
53772.5
53977.4
54550.3
55329.2
56021.7
56511
56677.6
56630.4
56007.4
55327.1
55455.1
55583.4
55512.4
55286.7
54445.8
52583.4
50933.1
50692.5
50922.2
50878.2
50608.3
50188.5
49177.6
48148.6
47578.3
46292.3
45139
45247.5
45371.1
44893.6
43964.3
43240.6
42183.7
41249.3
41526
41927.1
41353.2
39923.5
39047.8
39183.5
39440.8
38946.4
37471
36342
36314.6
36145.4
35504.4
35134.8
34376.7
32601.3
31576.2
31713.8
31553.7
31231
31017.3
31003.2
30883
30239.1
29286.9
27715
26254.3
25854.8
26141.7
26307.8
26006.7
25432.8
24782.3
24026.9
23238.5
22733.3
22737.8
22724.6
22316
22025.4
21516
20663.5
19812.4
18843.5
18148.2
17372.5
16500.9
15594.9
14204.2
12786.4
11001.2
8483.71
6157.65
5344.54
2767.93
50258.4
50437.7
50837.5
51216.7
51640.9
52156.2
52745.5
53361.9
53813.9
53831.4
53724.7
53771.8
53966.3
54533.7
55312.6
56000.5
56496.4
56663.2
56637.7
56015.7
55304
55446.4
55569.9
55488
55263.5
54455
52612.8
50933.4
50690.8
50929.9
50876.1
50593.5
50189.9
49184.9
48140.6
47597.8
46311
45124.9
45232.4
45366.5
44895.8
43954.9
43273.3
42216.6
41225.9
41504.4
41922.6
41368.7
39922
39034.3
39184.6
39451.7
38983.2
37480.4
36309.5
36310
36149.6
35488.5
35125.6
34409.4
32606.4
31557.7
31721.1
31558.2
31234
31004.3
30983.1
30871.3
30228.4
29301.5
27731.3
26258.1
25851.3
26144.8
26312.4
25995.3
25420.6
24779.7
24030.4
23243.6
22724.9
22734.3
22730.2
22306.8
22025.2
21518.8
20661.4
19819.7
18844.4
18156.8
17371.8
16493.4
15601.2
14201.5
12792.7
11027.7
8513.62
6144.6
5378.39
2833.87
50232.8
50410.9
50821
51198.1
51619.5
52134.7
52722.3
53347.9
53827.6
53842.7
53726.3
53759.8
53928.4
54502.2
55287.1
55975.8
56509.4
56676.9
56674
56033.9
55254.7
55438
55563.6
55463.8
55272.4
54541.4
52657.8
50879.4
50654.2
50927.6
50864.1
50579
50211.8
49215.7
48125.7
47671.8
46331.7
45067
45198.3
45373.7
44928.3
43949
43308.9
42248.1
41161.3
41457.6
41935.7
41423
39921.6
38999
39170.4
39482
39022.5
37474
36257.9
36313.9
36186
35473.7
35107.5
34478.3
32607.5
31493.2
31726.5
31563.3
31229.9
30991
30978.5
30881.2
30236.7
29341.4
27746.2
26235
25820.3
26127.3
26294.3
25982.1
25439.2
24800.4
24025.4
23244.1
22706.4
22720.4
22752.6
22294.1
22035.5
21540.7
20666.3
19834.2
18831
18151.4
17404
16491.3
15632
14199
12804.2
11076.8
8534.85
6109.33
5393.79
2918.86
50256.6
50419
50840.3
51212.9
51628.1
52141.7
52727.1
53367.2
53881.9
53879.2
53717.2
53728.4
53881.9
54514.3
55284.7
55964.9
56538.3
56740.4
56670
56044.6
55244.2
55455.6
55557.6
55391.8
55330.7
54728
52680.8
50789.8
50635.5
50930.9
50799.9
50569.5
50320.1
49241.6
48041.6
47688.3
46420.9
44983.5
45174.1
45399
44986
43932.9
43224.2
42235.3
41150.3
41425.3
41984.7
41475.9
39928.3
38982.5
39096.9
39515.9
39006.9
37407.9
36270.3
36351.2
36242.9
35448.3
35093.6
34496.4
32567.3
31475.5
31771.1
31575.9
31178.4
31017.3
31024.8
30928.1
30250.9
29310.8
27723.7
26260.8
25788.1
26078
26268.4
25988.2
25522.4
24846.6
24025.5
23215.2
22674.1
22702.7
22787.4
22301.9
22037.9
21621.2
20671.6
19851
18809.2
18080.8
17330.2
16544.5
15700.3
14184.4
12783.9
11148.8
8532.72
5964.46
5340.26
2963.52
50348.3
50475.4
50906.3
51270.6
51675.1
52185
52765.5
53414.7
53943.9
53915.4
53676.2
53622
53934
54573.7
55313.6
55966
56510.6
56734.1
56614.3
56034.8
55338.5
55474.4
55541.6
55354.7
55466.6
54794.4
52579.5
50699.7
50692.9
50959.2
50765.8
50593.2
50428.1
49132.8
47910.3
47746.8
46456.9
44979.3
45215.3
45447.4
45066.6
43894.6
43043.2
42174.1
41198.3
41439.1
42083
41593.1
39952
38952.4
38989.7
39448.4
38894
37367
36358.4
36424.9
36201.1
35367.3
35195.4
34451.2
32476.1
31546.1
31890.2
31608.9
31034.1
30979.8
31110.9
30939.3
30319.7
29275.4
27747.1
26291.4
25760.4
26039.1
26236.5
25967.5
25533.2
24976.2
24056.5
23183.6
22633.7
22700.1
22851.7
22293.5
21941.7
21628.7
20652.9
19816
18929.3
18031
17310.6
16573.9
15764.1
14213
12661.4
11181.8
8587.07
5804.73
5157.31
2903.58
50514.1
50586.3
51023.7
51375.4
51764.1
52267.4
52836.4
53467.9
54019.7
53924
53558.2
53657.7
54032.9
54663.4
55370.1
55992.2
56501.6
56783
56573
56020.6
55396.5
55379.3
55485.6
55449.3
55586.9
54690.9
52418.4
50745.9
50789.6
50938.9
50676.9
50674
50406.2
48997.8
47820.7
47705.8
46482.5
45066.6
45303.7
45462.3
45080.1
43922.3
42779.9
42071.6
41333.7
41483.2
42102.9
41700.8
40080.4
38944.8
38878.8
39245.8
38774.7
37447.2
36504.1
36518.9
36151
35226.8
35207.2
34417
32477.2
31647.8
32070.3
31663.8
30872.6
30882.6
31111.7
30932.4
30334.8
29296.7
27816.7
26358.3
25760.6
26019.4
26106.9
25885.5
25576.5
25092.6
24241.8
23190.8
22593.5
22714
22944.1
22317.5
21829.3
21580.5
20561.3
19779.9
18973.4
18121.1
17319.9
16598.1
15762.2
14161.1
12610.4
11095
8517.53
5657.67
4878.32
2723.21
50748.5
50749.7
51190.3
51525.8
51894.1
52388.1
52940.6
53535.4
54024.2
53910.3
53597.7
53746.9
54155.4
54770.5
55446.7
56040.7
56521.8
56850.4
56562.7
56012.9
55469.7
55277.3
55463.9
55523.5
55592.5
54474.2
52298
50900
50948.4
50942.2
50618.5
50602.6
50331.5
48949.6
47751.6
47583
46468.6
45218
45312
45417.4
45143.5
43946.9
42651.6
42054.6
41480.9
41536
42121.3
41696
40156.7
39038.7
38814.9
39086.6
38663.3
37470
36545.9
36514.8
36083.8
35182.2
35118.5
34406.6
32605
31758.9
32230.3
31722.6
30750.2
30798.1
31087
30920.3
30288.7
29293.5
27818.3
26383.1
25869.3
26019.9
26018.1
25914.7
25608.2
25105.7
24331.6
23224.8
22621.6
22761.3
22958
22330.2
21848.2
21533.3
20494.7
19796.8
19038.1
18215.3
17334.1
16615.4
15779.5
14054
12461.2
11023.7
8419.57
5495.08
4517.93
2430.19
51036.9
50956.9
51397
51713.5
52057.9
52541.1
53072
53621.4
54013.5
53923
53708.7
53871.1
54295.1
54887.8
55534.8
56100.6
56543.4
56833.5
56512.2
55981.3
55488.9
55316
55436.2
55490.3
55406
54306.3
52297.1
51079.8
51125.4
50964.4
50552
50509.3
50161.1
48877.7
47789.5
47534.6
46479.8
45321
45313.4
45372.1
45072.2
43920.6
42654.6
42085.4
41634.2
41603.2
42075.4
41638.2
40207.9
39151.4
38821
39002.3
38576.5
37499.1
36591.5
36377.7
36005.8
35237.8
35049.5
34418.7
32731.6
31847.4
32282.2
31728.8
30709.8
30779.3
31098
30927.3
30231.3
29157.1
27781.9
26481.6
26020.9
26099.2
25954.2
25932.1
25669.8
25144.8
24349.3
23199.7
22728.6
22830.1
22931.8
22354.4
21871.6
21439.2
20507
19826.8
19089
18279.5
17374
16551.4
15716.7
13981.3
12272
10797.2
8271.72
5370.79
4087.8
2052.2
51360.3
51194.7
51630.1
51926.8
52246.2
52717.1
53216.9
53724.1
54045.6
53971.2
53839.7
54013.8
54441.5
55006.8
55626.3
56164.9
56566.6
56781.2
56493.2
55999.5
55537.7
55359.9
55411.6
55439.3
55242
54148.2
52316.3
51248.6
51225.2
50930
50579.5
50461.2
50015.1
48801.5
47817.3
47516.3
46547.4
45392.7
45325.6
45316.1
44920.5
43852.9
42720.4
42163
41747.6
41649.1
41981.3
41545.6
40305.7
39275.8
38858.4
38962.3
38521.9
37514.6
36622.5
36264.5
35924.5
35289.8
34994
34324.9
32812.8
32003.7
32250
31686.9
30742.5
30824.6
31137.7
30952.1
30230.1
29016.5
27697.2
26559.5
26161.1
26093.9
25932
25914.3
25676.1
25136.3
24326.6
23289.1
22847.1
22912.5
22930.9
22386.4
21883.4
21391.5
20527.8
19848
19106.4
18265.3
17331.4
16521.4
15585.4
13881.9
12151.3
10595.1
8115.7
5259.62
3628.11
1655.25
51700.8
51450.1
51874.2
52150.9
52445.4
52901.9
53368.2
53822
54108.7
54057.3
53976.5
54165.7
54582.1
55120.5
55713.9
56227.1
56592.2
56748.5
56483.6
56018.3
55579.1
55395.7
55389.6
55394.4
55107.5
53991.2
52316.5
51358.1
51221.9
50946.4
50618.4
50438.8
49903.5
48738.3
47826
47453.1
46509.4
45500.9
45352.2
45267.3
44788.5
43782.4
42781
42255.9
41827.3
41671
41925.4
41488.6
40331.1
39349.8
38941.9
38951
38485
37525.2
36644
36176.9
35859
35330
34952.6
34236.6
32874
32136
32209.3
31642.1
30767.1
30880.2
31183.2
30933
30150.6
28949.8
27627.5
26614.5
26281.7
26134.2
25906.7
25913.6
25738.2
25130.7
24314.5
23374.6
22958.4
22988.9
22927.3
22414.4
21903.1
21349.9
20533.7
19859.4
19092
18237.8
17319.5
16460.3
15446.7
13767.8
12036
10401.1
7973.66
5189.81
3203.32
1286.79
52042.9
51711.2
52118
52377.3
52650.1
53083
53523.6
53934.5
54192.1
54159
54107.9
54301
54706.3
55225.3
55790.6
56280
56614.6
56731.5
56478.4
56030
55610
55420.8
55366.7
55353.3
54997.7
53864.2
52325.9
51444.7
51258.9
50960.1
50640.9
50408.5
49812.8
48693.7
47831.4
47403
46515.4
45596.3
45379.5
45222.3
44687.8
43728.5
42836.9
42341
41883.2
41668.4
41892.1
41455.5
40338.4
39422.3
39010
38943.2
38452.1
37531.2
36645.9
36103
35822.3
35365.7
34922
34176.2
32926.7
32233.5
32179.6
31593.4
30771
30934.3
31224.7
30910.1
30120.9
28895.9
27582.2
26680.3
26381.4
26158
25876.3
25930.7
25803.9
25133.5
24306.2
23444.7
23058.6
23052.7
22927.5
22427.9
21910.8
21313.8
20527.7
19859.7
19065.7
18200.5
17286.5
16379.2
15301.4
13637.2
11897.8
10203.6
7841.05
5130.15
2791.76
932.59
52374.9
51968.4
52352.3
52596.3
52850.2
53258.2
53675.6
54051.3
54285
54265.7
54232.7
54423.4
54815.1
55315
55854.1
56321.6
56631.6
56721.1
56474.7
56036
55629.3
55433.3
55337.8
55312.3
54907.9
53772.6
52352.7
51524.9
51294.1
50964
50646.3
50362.8
49732.6
48664
47838.6
47372.9
46524.6
45673.2
45397.8
45175.3
44610.3
43700.4
42898
42414.5
41915.2
41651.6
41872.4
41443.7
40351.3
39489.1
39058.4
38927
38412.1
37522.9
36627.7
36036.7
35816
35407
34903
34143.2
32977.4
32305.1
32152.2
31538.7
30760.5
30987.1
31258.7
30884.9
30095.9
28853.6
27561.6
26750.8
26470.2
26169.3
25838.8
25958.8
25874.8
25137.2
24302.5
23512.3
23148.7
23105.8
22927.3
22427.4
21903.6
21274.6
20511.1
19850
19028.6
18150.4
17229.3
16275.2
15142.5
13485
11735.3
9994.85
7692.56
5042.7
2335.46
554.821
52688.2
52216.2
52573.1
52805.1
53043.2
53426.2
53821.1
54165
54378.1
54370.5
54349.2
54531.8
54906
55386.7
55901.7
56350.7
56642.3
56710.5
56468.4
56037.2
55637.4
55437.2
55298.6
55267.1
54829.1
53704.3
52398.3
51603.1
51328.5
50964.4
50641.5
50300.7
49651.8
48643.9
47848.5
47355.6
46539.5
45742.8
45405.5
45124
44544.1
43692.4
42970.6
42485.3
41932
41615.7
41861.9
41450.7
40370.2
39556.7
39096.9
38900.3
38357.7
37497.8
36600.9
35969.2
35831.6
35460.7
34890.9
34129.7
33028.1
32365.1
32120.7
31478.6
30742.5
31044.8
31289.1
30849.3
30077.2
28821.8
27552
26824.7
26558.9
26175.3
25790.7
25999
25960.4
25132.3
24294.9
23586.2
23238.7
23151.4
22919.7
22413.3
21884.2
21225.3
20485.4
19836.1
18983.1
18089.8
17153
16150.6
14967.8
13312.8
11549.2
9767.74
7521.54
4913.24
1827.49
146.373
52973.8
52446.8
52777.1
53001.6
53229
53589.4
53962.4
54276.7
54470.5
54473
54458.3
54625.7
54980.4
55441.3
55933.9
56368.9
56647
56697.8
56461.7
56041.2
55642.8
55437.8
55241.3
55205.3
54749
53651.4
52468.6
51684.4
51362.8
50959.7
50628.3
50220.2
49568.5
48631.1
47864.6
47349.3
46557.8
45813.3
45402.8
45068
44480.3
43694.3
43059.8
42561.8
41943
41554.2
41850.7
41476.5
40393.5
39635.5
39132.3
38862.3
38285.9
37456.7
36574
35888.6
35865.9
35538.2
34881.3
34130.5
33080.9
32424.2
32077.8
31415.4
30718.5
31108.8
31315.5
30798.9
30067.5
28798.9
27547.9
26902.9
26653.8
26181.1
25726.2
26053
26074.1
25113.8
24275.9
23674.5
23338.6
23189.8
22896.2
22382.1
21856.1
21161.3
20451.7
19826.8
18940.2
18020.2
17061.8
16020.8
14769.9
13107.8
11338.4
9521.74
7326.81
4736.63
1311.06
-254.14
53224.8
52652.9
52956.7
53175.4
53395.2
53736.9
54090.3
54378.7
54556.2
54568.8
54557.7
54704.5
55039.2
55480.2
55951.7
56377.9
56648
56685.2
56457
56058.7
55675.3
55443.9
55171
55134.2
54622
53607
52567.5
51768.8
51401.8
50948.7
50604.6
50120.8
49490.2
48637.1
47911.2
47337.1
46584.7
45892.7
45395
45016.6
44419.3
43700.7
43203
42637.8
41966.3
41484.9
41821.4
41493.4
40416.4
39731.4
39170.8
38821.1
38206.2
37412.5
36563.4
35805.4
35899.5
35624
34867.4
34143
33138.8
32483.1
32034
31368.4
30698.3
31192.9
31311.2
30716.4
30077.9
28787.7
27545.4
26984.2
26757.1
26201.3
25661.4
26110.4
26205.1
25085.4
24245.1
23772.1
23457.5
23226.1
22848.7
22317.8
21819.9
21098.3
20461.2
19816.4
18889.9
17940.7
16967.6
15884.6
14570.1
12900.5
11116.2
9272.04
7121.28
4535.08
838.056
-617.652
53436.5
52830.6
53109.4
53323.4
53537.5
53863.9
54199.7
54464.6
54628
54648.9
54636.2
54757.7
55073.1
55496.3
55950.2
56375.7
56644.9
56672.8
56453
56078
55710.7
55459.9
55173.4
55002.1
54411.4
53600
52694.6
51846.5
51417
50949.7
50577.3
49984.6
49432.6
48747.9
47873
47232.2
46608
45991.9
45400.2
44994.2
44380.6
43774.3
43243.9
42655
42020
41476.4
41755.9
41404.8
40425.8
39850.1
39205.2
38784.5
38159.3
37392.3
36584.7
35821.2
35891.9
35560.6
34833.4
34213.9
33206.9
32521.6
32011.4
31377.5
30777.3
31212.5
31130.5
30607.9
30138.9
28806.4
27553.5
27062.4
26853.5
26254.4
25711.6
26134.7
26210.2
24999.4
24190.6
23901
23590.2
23246.9
22811.5
22246.5
21761.7
21095
20388.7
19744.3
18821.8
17857.6
16871.9
15752.8
14384.7
12710.1
10910.2
9032.31
6918.3
4338.74
440.917
-925.595
53606.4
52977.5
53234
53443.9
53653.4
53968.2
54288.5
54531.9
54683.2
54710.6
54691.2
54782.6
55080.3
55488.9
55929.3
56363.7
56639.3
56660.7
56448.3
56096.6
55739.1
55464.1
55166.4
54915.6
54330
53523.8
52705.2
51901.5
51436.4
50966.1
50551.7
49833.2
49389.6
48868.7
47918.7
47140.8
46653.1
46104.6
45445.9
45006.7
44410.4
43757.5
43210.3
42659.9
42095.4
41586.5
41680.3
41167
40425.5
39966.6
39237.5
38760.7
38136.3
37392.8
36644.5
35954.2
35857.4
35345
34783.9
34299.1
33280.3
32577
32032.9
31462.6
30960.1
31139.9
30752
30480.6
30258.6
28873.6
27680.7
27106
26829.4
26328.9
25894.4
26125.6
26047.7
24869
24095.3
24028
23741.7
23264.7
22781
22227.5
21708.8
21042.1
20357.5
19687.3
18767.3
17782
16764.9
15612
14219.2
12543.8
10727.9
8825.37
6746.35
4175.94
136.281
-1168.21
53733.6
53092.1
53329.8
53536.2
53741.6
54048.9
54356
54579.1
54720.4
54752.8
54721.3
54777.4
55060.3
55458.2
55889.6
56343.3
56632.2
56648
56440.6
56106.8
55754.8
55457.6
55142.6
54837.1
54273.7
53503.8
52709.7
51955.3
51463.3
50982.6
50535.1
49849.1
49369.2
48827.1
47940.1
47178.2
46627.5
46116.7
45475.2
45008.4
44426.1
43775.7
43213.8
42682.7
42132.1
41661.3
41611
41100.1
40410
39931.5
39247.8
38743.6
38131.8
37403.9
36686.1
36051.1
35821.6
35301.9
34753.8
34245.5
33327.4
32639.8
32071.4
31538.4
31089.2
31077.7
30548
30389
30250.2
28924.5
27801
27183.8
26820.2
26370.8
26035.1
26095.3
25904.9
24898.7
24024.9
23991.9
23859.6
23275
22751.7
22209.8
21682.9
21011.8
20316.2
19614.9
18704.2
17712.9
16670.3
15490.9
14082.7
12409.9
10585.5
8670.83
6624.37
4065.42
-66.7895
-1340.83
53818.8
53173.4
53397.1
53600.7
53801.9
54105.9
54402.8
54606.3
54739.4
54775.8
54726.6
54741
55013.6
55404.9
55831.9
56317.3
56625.5
56634.3
56428.9
56108
55759.6
55444.1
55110.9
54767.9
54219
53486.8
52724.6
52007.4
51493.3
50999.1
50524.4
49879.6
49351.3
48774.4
47958
47229
46656
46124.1
45508.5
45003.7
44418.8
43790.5
43235.4
42709.9
42173.1
41702.3
41539.5
41062.2
40411.4
39897
39260.4
38735.2
38130.5
37425.3
36726
36095.3
35778.6
35290
34741
34201.7
33376.7
32705.3
32138.2
31606.4
31143.8
31019.3
30560.1
30327
30080.8
28934.7
27892.7
27265
26872.1
26443.1
26090.1
26028.6
25793.5
24938.5
24132.7
23979.2
23800.7
23251.8
22715.7
22188.8
21661.4
20984.7
20277.5
19549.9
18649.6
17657.6
16597.7
15399.7
13983.1
12318.1
10494.8
8580.04
6564.73
4019.29
-167.122
-1442.77
53865.2
53222.4
53437.3
53638.8
53835.1
54140.6
54430.2
54614
54741.2
54781.6
54708.5
54673.3
54941.8
55331.2
55756.5
56287.4
56620.6
56619.3
56413.5
56102.5
55756.7
55425.7
55076.5
54706.4
54168.9
53471.8
52742.4
52055.3
51523.7
51015.6
50517.3
49893.4
49333.9
48739.9
47976.4
47272
46685.4
46138.1
45533.2
44996.4
44412.5
43806.3
43260.1
42736.5
42205.2
41726.1
41481.7
41024.4
40411.7
39882.7
39274.9
38732.7
38129.6
37440.2
36750.1
36120.4
35745.6
35276.5
34735
34184.4
33427.5
32768.9
32196.4
31654.5
31180.5
30982.2
30575.8
30273.7
29934.2
28937.8
27972.6
27344.6
26929.1
26499.4
26117.9
25973.6
25709.9
24963.9
24235.5
23981.6
23740.8
23232.8
22701.4
22170.3
21624.9
20956
20245.3
19500.5
18609.3
17620
16550.2
15342
13925.4
12274.9
10463
8559.35
6575.13
4043.75
-174.492
-1478.52
53881.6
53244.8
53456.4
53656
53844.8
54156.1
54441.1
54604.4
54728.1
54773.5
54669.9
54574.9
54847.2
55238.1
55662.9
56255.8
56618.4
56602.3
56393.9
56091.1
55747.8
55404.4
55041.9
54651.6
54123.4
53458.2
52759.7
52097.5
51552.7
51031.2
50512.7
49899.2
49318.9
48715.7
47993.4
47309.6
46713.9
46152.4
45549.5
44990.6
44409.9
43822.9
43284.4
42760.5
42228
41741.8
41437.7
40990.7
40410.6
39877
39288.5
38733.7
38128.8
37448.2
36762.4
36138
35723.4
35264.3
34733.1
34180.1
33475.2
32827.4
32243.6
31690.4
31211.1
30956.3
30570.7
30222.9
29824.6
28937
28043.5
27420.6
26981.3
26540.2
26139.6
25933.5
25644.8
24980.7
24310
23989.4
23703.5
23219
22692.7
22154.4
21593.7
20932.4
20221.4
19466.6
18584.5
17601.6
16529.2
15319.1
13910.9
12282.1
10490.8
8606.82
6651.97
4134.19
-109.856
-1456
53869.7
53242.8
53456.8
53653.9
53834.6
54156.9
54438.4
54580.1
54703
54755.2
54614.8
54451.5
54732.8
55115.6
55544.4
56225.8
56620.2
56582.1
56369.6
56074.2
55733.8
55381.2
55007.7
54602.4
54082.1
53445.3
52774.8
52133.1
51578.8
51045.2
50509.6
49901.2
49307.2
48698.7
48007.9
47341.6
46740.1
46165.9
45561.4
44987.4
44410.4
43839.1
43306.4
42781
42245.6
41753.1
41404.5
40961.7
40408.2
39875
39299.9
38736
38127.6
37452.4
36770.1
36151.6
35709.1
35253.8
34733
34182.6
33517.3
32879.2
32284.3
31720.6
31236.5
30937.1
30556.6
30176.8
29738.3
28933.6
28105.3
27490.7
27029.3
26573.4
26158.2
25904
25593.5
24991.8
24367.6
24000.9
23678.3
23208.2
22686.3
22142.7
21571.6
20915.9
20206.7
19447.2
18575.1
17602
16533.4
15328.6
13936.1
12335.3
10572.7
8715.66
6790.8
4290.46
28.1143
-1374.08
53821.4
53214.2
53433.5
53626.3
53807.8
54143
54414.9
54536.8
54662.8
54727
54545.1
54325.4
54611.3
54955.5
55426.5
56178.2
56627.2
56555.9
56338.9
56051
55714.4
55355.8
54973.6
54557.4
54044.3
53431.9
52786.5
52161.8
51601
51056.8
50507.3
49901.1
49298.4
48686.9
48020
47368.2
46763.3
46178.5
45571
44987.1
44413.3
43854
43325.5
42798.3
42259.7
41761.8
41379.7
40937.2
40404.5
39874.4
39308.7
38738.3
38126.2
37454.7
36776.4
36163.5
35700.8
35245
34733.5
34188.3
33553.5
32924.1
32320.2
31747.7
31258.1
30923.2
30539.1
30135.5
29669.5
28928.8
28158
27553.2
27073
26602.2
26175
25882.8
25553.2
24998.8
24413.1
24014.7
23661.6
23199.5
22682
22135.4
21557.6
20906.9
20201.5
19441.8
18580.8
17620.7
16561.6
15368.9
13998.5
12431.7
10706
8884.56
6994.62
4520.85
264.716
-1222.92
53732.7
53152.9
53383
53576.5
53753.3
54102.8
54376
54473.4
54605.3
54688.5
54455.5
54170.6
54474.9
54873.5
55209.2
56063
56614.2
56517.8
56299.1
56020.1
55689
55327.5
54939.2
54515.4
54008.9
53417.5
52794
52183.5
51618.5
51065.8
50505.3
49900
49292
48679.1
48029.9
47389.9
46783.2
46189.9
45579.5
44989.3
44418.2
43867.1
43341.4
42812.6
42271.6
41769.1
41361.4
40916.6
40399.9
39874
39314.9
38740.1
38124.9
37456.5
36782.8
36174.8
35696.9
35237.8
34733.8
34195
33583.7
32962.2
32352.2
31772.9
31277.1
30913.2
30520.9
30099.4
29614.9
28923.7
28202
27607.4
27112
26628.1
26190.7
25868.2
25522.2
25003.2
24449.2
24029.4
23651.4
23193
22679.7
22132.2
21550.7
20905.1
20205.1
19448.9
18600.5
17655.9
16611.4
15437
14094.8
12568.3
10887.6
9110.62
7260.77
4825.18
614.114
-996.651
53605.2
53055.5
53304.3
53499.3
53673.6
54041.6
54317.8
54392.7
54551.5
54643.5
54332.1
53984.5
54317.5
54779.6
55100
55905
56512
56456.7
56247.1
55980.2
55657
55295.6
54903.7
54475.1
53974.8
53401.4
52796.6
52198.2
51630.9
51071.6
50502.9
49898.1
49287.4
48674
48037.5
47406.8
46799.4
46200.1
45587.5
44993.6
44424.3
43878.5
43354.1
42824.2
42281.9
41775.7
41348.3
40899.6
40394.5
39872.9
39318.6
38741.1
38123.8
37458.5
36790.1
36186.3
35695.9
35231.8
34733.3
34201.2
33608.1
32994
32380.8
31796.7
31294.5
30906.3
30503.6
30068.3
29571.9
28919.1
28238
27653.1
27146.2
26651.9
26205.9
25859
25498.7
25005.9
24477.7
24044
23646.1
23188.7
22679.4
22132.4
21549.8
20909.5
20216.2
19466.3
18631.5
17704.5
16678.3
15526.6
14217.1
12735
11105.3
9379.9
7574.9
5192.61
1077.97
-694.296
53441.5
52923.5
53197.8
53394.7
53575.7
53963
54251.5
54307.8
54469.5
54588.2
54212.3
53783.4
54126.5
54641.4
55035.9
55747.2
56333.6
56372.3
56182.4
55931
55618
55259.5
54866.4
54435.2
53940.9
53383
52793.9
52205.7
51637.8
51074.1
50499.8
49895.5
49283.8
48670.5
48043.1
47419.5
46812.1
46208.9
45595.4
44999.7
44431.1
43887.9
43363.9
42833.5
42291.2
41782.2
41339.2
40885.6
40388.6
39870.8
39320.2
38741.3
38122.9
37461.1
36798.6
36198.1
35697.1
35226.8
34731.9
34206
33627.2
33020.1
32406.2
31819.4
31310.9
30902.1
30488.2
30042.1
29538.5
28915.3
28266.7
27690.5
27175.5
26673.8
26220.8
25854.1
25481.4
25007.7
24499.9
24057.5
23644.3
23186.5
22680.6
22135.4
21553.3
20918.7
20232.8
19491
18670.6
17762.2
16756.5
15630.3
14355.7
12919.7
11343.6
9673.53
7916.17
5603.88
1651.02
-318.243
53244
52763.6
53062.2
53264.3
53473.5
53870.7
54153.7
54205.9
54372.7
54529.6
54091
53565.4
53918.5
54487.3
54944
55605.8
56157.5
56260
56104.1
55872.2
55571.4
55218.5
54826.4
54394.8
53906.7
53361.5
52785.7
52206.4
51639.3
51073.1
50495.4
49892.3
49280.6
48667.8
48046.6
47428.3
46821.5
46216.4
45603.2
45006.8
44438.3
43895.7
43371.2
42840.9
42299.6
41788.6
41333.2
40874.3
40382.2
39867.6
39319.9
38740.6
38122.3
37464.6
36808.2
36210.3
35699.7
35222.8
34729.6
34209
33641.3
33040.9
32428.6
31840.8
31326.4
30900.2
30475.4
30020.9
29513.1
28912.3
28289
27720.2
27200.2
26693.9
26235.3
25852.5
25469.2
25008.9
24516.8
24069.5
23644.8
23185.8
22682.8
22140.1
21559.8
20931
20252.8
19520
18713.9
17824
16839.7
15739.9
14500.2
13109.5
11586.1
9971.07
8261.11
6030.12
2321.85
124.238
53013.9
52582.3
52905.2
53109.1
53347.6
53765.4
54046.8
54094.3
54272.1
54475.3
53981.3
53353.2
53706.2
54345.4
54829.6
55444.7
55990.1
56139.9
56017.9
55807.1
55519.9
55174.6
54785.5
54355.5
53873.1
53338.4
52773.5
52201.8
51636.4
51069.3
50490.1
49888.4
49277.5
48665.4
48048.3
47433.9
46827.9
46222.3
45610.5
45014.3
44445
43901.7
43376.3
42846.6
42307.2
41794.8
41329.6
40865.5
40376.1
39863.6
39318
38739.1
38121.6
37468.4
36818.2
36222.1
35703.3
35219.7
34726.9
34210.1
33650.8
33056.5
32447.4
31860
31340.7
30900.1
30465.5
30004.3
29494.3
28910
28305.4
27742.6
27220.1
26711.8
26248.9
25853.3
25461.2
25009.6
24529.2
24079.3
23646.5
23186
22685.2
22145.2
21567.2
20943.8
20272.9
19548.8
18755.9
17883.1
16919
15844.1
14636.8
13287.4
11812.4
10247.8
8581.66
6439.64
3062.8
617.006
52757.1
52385.2
52733.2
52941.9
53208.5
53655.6
53942.8
53982.4
54172.9
54430.7
53896.2
53187.3
53471.9
54178.6
54692.5
55284.6
55825.6
56004.7
55922.8
55734.8
55462.5
55126.6
54742.8
54316
53839.1
53313.2
52757.3
52192.2
51629.3
51062.4
50483.1
49883.5
49274
48662.7
48048.3
47436.7
46831.6
46226.6
45617
45021.4
44451.3
43906.7
43380.1
42851.1
42314
41800.5
41327.9
40858.9
40370.3
39858.9
39314.8
38736.6
38120.7
37472.2
36827.9
36233.4
35707.8
35218.1
34724.2
34209.7
33656.3
33067.4
32462.5
31876.9
31353.7
30901.6
30458.8
29992.1
29480.9
28908.1
28316.8
27759
27235.9
26727.4
26261.4
25855.9
25456.7
25010.2
24538
24087
23648.6
23186.7
22687.4
22149.8
21574.4
20955.7
20291.3
19575.2
18793.7
17935.8
16989.6
15936.7
14757.7
13444
12010.3
10487.5
8855.56
6799.94
3818.73
1134.03
52482.3
52179.5
52550.4
52765.6
53057.9
53540.3
53840.6
53871
54074.6
54399.2
53839.6
52963.9
53216.6
53985.1
54529.2
55114.4
55654.8
55861.1
55817.5
55653.6
55398
55073.5
54696.8
54274.7
53803.5
53285.4
52737.5
52178.5
51618.6
51053.1
50474.7
49877.3
49269.7
48659.3
48047
47437.6
46833.6
46229.6
45622.5
45027.9
44457
43910.9
43383.1
42854.8
42319.9
41805.9
41327.4
40854.1
40365
39853.8
39310.7
38733.4
38119.5
37475.8
36837.2
36244.1
35712.9
35217.4
34721.5
34207.9
33658.8
33075
32474.9
31892
31366.1
30904.7
30454.5
29983
29470.8
28906.1
28324.8
27771.3
27248.8
26741.1
26273.1
25859.6
25454.4
25010.5
24544.2
24092.9
23650.6
23187.3
22689
22153.3
21580.3
20965.7
20306.6
19597.3
18825.2
17979.7
17048.4
16014.2
14859.2
13575.6
12176.9
10688.7
9085.27
7120.12
4556.22
1634.79
52198.1
51970.9
52361
52581.8
52900.4
53426.1
53746.6
53762
53980.6
54402.6
53816.7
52749
52926.6
53794.7
54348.4
54943
55477.9
55712.1
55704.5
55565.9
55328.6
55017
54648.6
54232.1
53766.7
53256
52715.6
52162.6
51606
51042.1
50465
49870
49264.4
48655.2
48044.8
47437.2
46834.3
46231.5
45626.8
45033.4
44462.1
43914.8
43385.6
42857.8
42325.3
41811.2
41327.7
40850.3
40360
39848.4
39305.8
38729.4
38117.8
37479.3
36846.2
36254.6
35718.8
35217.3
34718.4
34204.8
33658.9
33079.8
32485.2
31906
31378.6
30909
30451.7
29975.3
29461.9
28903.5
28330.4
27781.1
27259.5
26753.4
26284
25863.8
25452.7
25010.3
24548.8
24097.7
23652.1
23187.2
22689.4
22155.2
21584.3
20972.9
20318.1
19614
18849.3
18013.4
17094.1
16074.9
14939.5
13681.5
12312.9
10854.3
9278.74
7421.42
5308.19
2131.05
51915.2
51768.5
52175.9
52399.5
52742.9
53319.9
53671.3
53659
53894.7
54465.6
53821.2
52504.2
52579.2
53509.8
54179.5
54775.5
55302.2
55560.4
55586.6
55473.5
55255.2
54957.4
54598.2
54187.9
53728.5
53224.9
52691.7
52144.6
51591.5
51029.6
50454.2
49861.7
49258.2
48650.4
48041.8
47435.9
46834
46232.5
45630.1
45038.3
44466.9
43918.5
43387.9
42860.3
42330.3
41816.4
41328.6
40847.2
40355.2
39842.7
39300.3
38724.9
38115.9
37482.7
36855.1
36265.1
35725
35217.5
34715
34200.6
33657.2
33083
32494.2
31919.5
31391.4
30914.5
30449.9
29968.5
29453.6
28900.3
28334.6
27789.4
27269
26764.7
26294.6
25868.3
25451.3
25009.9
24552.4
24101.6
23653.3
23186.7
22689
22156
21586.7
20977.9
20326.4
19626.2
18867.2
18038.8
17128.9
16122.1
15003.6
13768.4
12427.8
10998.1
9458.96
7744.92
6154.03
2706.6
51646.5
51583.1
52007.3
52226
52588.1
53214.3
53601.8
53572.5
53825.7
54598.8
53856.8
52243.4
52229.1
53278.1
54016.7
54619.9
55138.7
55416.4
55472.4
55383.2
55183.5
54899.3
54549.4
54145.5
53691.8
53194.9
52668.4
52126.7
51576.7
51016.9
50443.2
49853.1
49251.8
48645.6
48038.5
47434
46833.1
46232.7
45632.6
45042.4
44471.2
43921.9
43389.8
42862.4
42334.7
41821.3
41330
40845
40350.8
39837.1
39294.5
38719.9
38113.6
37485.7
36863.5
36275.2
35731.4
35218.1
34711.6
34195.8
33654.2
33084.4
32501.6
31931.9
31403.8
30920.3
30448.8
29962.5
29446.2
28897.1
28337.8
27796.1
27276.9
26774.6
26304.4
25872.6
25450.3
25009.3
24555.1
24104.6
23653.9
23185.6
22687.8
22155.6
21587.6
20980.5
20331.3
19633.9
18878.7
18055.6
17152.6
16155.3
15050.9
13835.8
12521.2
11121.4
9633.13
8107.25
7066.28
3380.4
51407.7
51426.5
51868.9
52077.3
52443.1
53112.6
53490.5
53480.7
53823.5
54749.7
53860
51981.4
51977.1
53087
53874.9
54485
54998.8
55291.7
55372.1
55303.4
55120
54847.9
54506.5
54108.2
53659.6
53168.4
52647.6
52110.4
51563.2
51005.2
50433
49845.1
49245.8
48641
48035.3
47431.9
46831.6
46232.3
45634.4
45045.8
44474.9
43924.8
43391.3
42864
42338.4
41825.7
41331.6
40843.4
40347
39831.7
39288.7
38714.8
38111.2
37488.4
36871.2
36284.4
35737.5
35218.9
34708.5
34190.8
33650.2
33084.4
32507.3
31942.8
31415
30926
30448.2
29957.4
29439.8
28894.1
28340
27801.3
27283.2
26783
26312.9
25876.5
25449.4
25008.6
24557
24106.7
23654
23184.1
22685.9
22154.2
21586.9
20981.1
20333.1
19637.1
18884.1
18064
17165.2
16174.4
15080.4
13881.7
12589.4
11218.3
9788.04
8459.03
7902.86
4045.53
51213.5
51309.5
51768.2
51961
52321.8
53011.1
53375.5
53410.3
53857.7
54877.8
53849.6
51788
51810.7
52946.9
53765.3
54380
54889.7
55193.2
55292
55239.3
55068.9
54806.6
54471.9
54078.2
53633.6
53146.8
52630.6
52096.9
51551.9
50995.3
50424.4
49838.3
49240.6
48637.1
48032.4
47429.8
46830
46231.6
45635.4
45048.4
44478
43927.2
43392.5
42865.2
42341.4
41829.5
41333.4
40842.4
40343.8
39826.9
39283.4
38710
38108.8
37490.6
36877.8
36292.5
35742.9
35219.7
34705.8
34185.9
33645.9
33083.5
32511.7
31952
31424.8
30931.2
30447.9
29953.1
29434.3
28891.4
28341.5
27805
27288
26789.8
26319.9
25879.7
25448.8
25007.8
24558.2
24108.1
23653.8
23182.5
22683.7
22152.3
21585.4
20980
20332.5
19636.9
18884.6
18065.7
17168.8
16181.7
15094.8
13908.2
12633.6
11288.7
9918.62
8768.73
8562.89
4571.81
51075.8
51233.9
51697.6
51884.6
52251.3
52949.2
53286.3
53351.9
53894
54949.6
53825.7
51653.8
51710.2
52859
53694.3
54310.2
54814.8
55124.1
55235.4
55194
55032.7
54777.2
54447.2
54056.5
53614.6
53131
52618.1
52087
51543.6
50987.9
50417.9
49833
49236.6
48634
48030.1
47428
46828.6
46230.9
45636.1
45050.3
44480.3
43929
43393.4
42866.1
42343.9
41832.7
41335
40841.8
40341.2
39822.9
39278.8
38705.9
38106.8
37492.3
36883.2
36298.9
35747.2
35220.5
34703.5
34181.7
33641.8
33082.2
32515
31959.3
31432.7
30935.5
30447.7
29949.6
29429.9
28889
28342.3
27807.5
27291.5
26794.9
26325.3
25882.2
25448.2
25007.1
24559
24109
23653.4
23180.8
22681.6
22150.1
21583.3
20978.1
20330.4
19634.5
18881.8
18062.6
17165.9
16180.2
15097.4
13918.8
12657.3
11335.9
10024.1
9016.79
9002.93
4888.67
50999.3
51189.6
51640.3
51856.1
52246.4
52936
53224
53312.6
53935.2
54962.7
53790.2
51586
51666.6
52819
53661.3
54275.4
54773.1
55084.1
55202.6
55167.8
55011.9
54760.3
54432.8
54043.7
53603.1
53121.5
52610.6
52081.2
51538.6
50983.4
50413.8
49829.5
49233.9
48631.9
48028.5
47426.7
46827.5
46230.2
45636.3
45051.5
44481.8
43930.2
43394
42866.8
42345.7
41835.1
41336.4
40841.5
40339.5
39820
39275.3
38702.7
38105.1
37493.5
36887
36303.4
35750.3
35221
34701.7
34178.3
33638.4
33080.9
32517.1
31964.5
31438.5
30938.6
30447.4
29946.8
29426.4
28887
28342.5
27809
27293.7
26798.5
26329
25883.9
25447.6
25006.5
24559.4
24109.6
23653
23179.5
22679.8
22148.2
21581.3
20975.8
20327.7
19630.9
18877.1
18056.8
17159
16172.8
15091.4
13916.9
12663.9
11362.6
10103.4
9193.63
9218.53
4980.14
50980.3
51182.4
51613.2
51852.9
52271.3
52937.6
53197.9
53319.4
53984.4
54935.8
53751
51588.2
51668.6
52814.4
53658.7
54270.2
54760.2
55069.9
55191.5
55159.5
55005.6
54755.3
54428.3
54039.2
53598.9
53118
52608
52079.3
51537
50981.7
50412.1
49828
49232.6
48630.9
48027.6
47426
46826.8