/*--------------------------------*- C++ -*----------------------------------*\
| =========                 |                                                 |
| \\      /  F ield         | foam-extend: Open Source CFD                    |
|  \\    /   O peration     | Version:     5.0                                |
|   \\  /    A nd           | Web:         http://www.foam-extend.org         |
|    \\/     M anipulation  |                                                 |
\*---------------------------------------------------------------------------*/
FoamFile
{
    version     2.0;
    format      ascii;
    class       surfaceScalarField;
    location    "0.045";
    object      phi;
}
// * * * * * * * * * * * * * * * * * * * * * * * * * * * * * * * * * * * * * //

dimensions      [0 3 -1 0 0 0 0];

internalField   nonuniform List<scalar> 
7860
(
0.0150909
-0.0100909
0.0269496
-0.0118587
0.0413718
-0.0144221
0.0547337
-0.0133618
0.0665707
-0.011837
0.0781924
-0.0116216
0.0910062
-0.0128136
0.107661
-0.0166552
0.127781
-0.0201197
0.139612
-0.01183
0.1424
-0.00278855
0.141419
0.000981795
0.137007
0.00441227
0.135656
0.00135113
0.13861
-0.00295324
0.145478
-0.00686819
0.157937
-0.0124585
0.169375
-0.0114378
0.182383
-0.0130071
0.185206
-0.00282272
0.174871
0.0103357
0.175063
-0.000191268
0.179224
-0.00416071
0.187685
-0.00846053
0.208113
-0.020428
0.232465
-0.0243514
0.230081
0.00238477
0.206164
0.0239172
0.193385
0.0127801
0.190027
0.00335761
0.189905
0.000122283
0.194137
-0.00423149
0.206164
-0.012026
0.209186
-0.0030214
0.204982
0.00420372
0.214418
-0.00943583
0.209016
0.00540267
0.189956
0.0190603
0.187198
0.00275748
0.193444
-0.00624508
0.201203
-0.00775915
0.196065
0.00513793
0.200671
-0.00460606
0.199146
0.00152582
0.180471
0.0186749
0.177053
0.00341766
0.192374
-0.015321
0.209632
-0.0172571
0.203742
0.00588957
0.188438
0.0153037
0.183624
0.00481396
0.191532
-0.00790806
0.202084
-0.0105516
0.195715
0.00636931
0.180715
0.0149999
0.180965
-0.000250648
0.188864
-0.00789869
0.19059
-0.00172638
0.199854
-0.00926418
0.214706
-0.0148517
0.203612
0.0110938
0.186329
0.0172829
0.18487
0.00145827
0.181071
0.00379959
0.178364
0.00270636
0.178673
-0.000309374
0.185076
-0.00640243
0.198313
-0.0132376
0.2099
-0.0115873
0.222739
-0.0128386
0.219897
0.00284164
0.201388
0.0185093
0.186405
0.0149822
0.180807
0.00559795
0.182948
-0.00214109
0.188595
-0.00564686
0.196443
-0.00784802
0.203492
-0.00704991
0.203935
-0.000442265
0.198577
0.00535763
0.191132
0.00744522
0.190838
0.000293963
0.196632
-0.00579454
0.195138
0.0014944
0.198841
-0.0037037
0.205827
-0.00698597
0.207014
-0.00118713
0.208576
-0.00156144
0.204009
0.00456666
0.203072
0.000936792
0.20273
0.000341812
0.203793
-0.00106278
0.210826
-0.00703303
0.209498
0.00132823
0.212789
-0.00329136
0.220252
-0.007463
0.209787
0.010465
0.181809
0.0279784
0.198383
-0.0165738
-0.0350769
0.049018
-0.0541088
0.0903367
-0.0531772
0.131942
-0.0560267
0.171127
-0.0525475
0.206982
-0.0476911
0.241312
-0.0459513
0.276036
-0.047537
0.314771
-0.0553907
0.354625
-0.0599728
0.379311
-0.0365153
0.389192
-0.0126692
0.392805
-0.00263027
0.395019
0.00219831
0.40224
-0.00586935
0.411462
-0.012174
0.424344
-0.0197498
0.446644
-0.0347577
0.468033
-0.0328254
0.483356
-0.0283298
0.488373
-0.00783822
0.481708
0.0170014
0.484431
-0.00291315
0.492575
-0.0123031
0.507339
-0.0232241
0.539987
-0.0530744
0.570036
-0.0543999
0.563138
0.00928361
0.537507
0.0495496
0.522401
0.0278862
0.513485
0.0122745
0.5092
0.00440892
0.515628
-0.0106592
0.526733
-0.0231307
0.526944
-0.00323101
0.521834
0.00931425
0.528735
-0.0163366
0.524353
0.00978525
0.50711
0.0363035
0.506112
0.00375631
0.513707
-0.0138402
0.524174
-0.0182257
0.517851
0.0114608
0.510519
0.00272677
0.503605
0.00843944
0.488743
0.0335374
0.487837
0.00432432
0.509109
-0.0365937
0.52794
-0.0360875
0.524872
0.00895749
0.510977
0.0291988
0.498469
0.0173215
0.4995
-0.00893854
0.494965
-0.00601687
0.485625
0.015709
0.480608
0.0200163
0.483317
-0.00295941
0.493558
-0.0181404
0.498549
-0.0067174
0.506153
-0.0168677
0.515168
-0.0238677
0.507536
0.0187258
0.497395
0.0274234
0.497061
0.00179213
0.488485
0.0123754
0.479969
0.0112226
0.48665
-0.00699116
0.50367
-0.023423
0.52253
-0.0320977
0.538668
-0.0277253
0.549562
-0.0237331
0.544235
0.00816859
0.526367
0.0363767
0.508253
0.0330963
0.495967
0.0178834
0.489957
0.00386916
0.497832
-0.0135223
0.519353
-0.0293698
0.535539
-0.0232364
0.533218
0.00187885
0.526529
0.012047
0.521862
0.0121117
0.523223
-0.00106726
0.532728
-0.0152997
0.530923
0.00329948
0.532885
-0.00566629
0.541509
-0.0156098
0.543388
-0.00306613
0.544584
-0.00275747
0.538366
0.0107846
0.531291
0.00801136
0.528415
0.00321793
0.531259
-0.00390689
0.537162
-0.0129361
0.529441
0.00904975
0.522102
0.00404712
0.517629
-0.00298945
0.489779
0.0383147
0.441399
0.0763585
0.418956
0.00586925
-0.0392164
0.0797426
-0.128851
0.148212
-0.121647
0.212903
-0.120717
0.273223
-0.112867
0.328283
-0.102751
0.379278
-0.0969456
0.427209
-0.095468
0.473705
-0.101886
0.516248
-0.102516
0.544104
-0.0643709
0.556352
-0.0249165
0.56334
-0.00961751
0.586275
-0.0207358
0.618984
-0.0385783
0.642902
-0.0360905
0.661567
-0.0384149
0.67725
-0.0504397
0.689096
-0.0446699
0.681894
-0.0211276
0.687289
-0.013232
0.701271
0.00302063
0.704848
-0.00648907
0.709051
-0.0165057
0.710519
-0.0246905
0.735921
-0.0784756
0.756704
-0.0751816
0.738489
0.0274988
0.730589
0.0574507
0.73557
0.0229059
0.728782
0.0190634
0.712037
0.0211549
0.71762
-0.0162408
0.734329
-0.0398392
0.71687
0.014228
0.686463
0.0397226
0.69274
-0.0226137
0.709372
-0.00684606
0.706765
0.038911
0.713697
-0.00317528
0.721002
-0.0211452
0.725527
-0.0227499
0.708574
0.0284144
0.664851
0.0464496
0.660775
0.0125153
0.684564
0.00974901
0.695712
-0.00682364
0.718993
-0.0598746
0.727715
-0.0448097
0.731437
0.00523575
0.728661
0.0319745
0.697547
0.048436
0.68223
0.00637753
0.659204
0.0170092
0.656256
0.0186576
0.678632
-0.00236027
0.682287
-0.00661463
0.68333
-0.0191832
0.682311
-0.00569904
0.688334
-0.0228913
0.672365
-0.0078989
0.670806
0.0202848
0.697529
0.000700561
0.711405
-0.0120843
0.703123
0.0206566
0.679837
0.0345088
0.689378
-0.0165327
0.713198
-0.0472427
0.727521
-0.0464216
0.735131
-0.0353355
0.718699
-0.00730089
0.718833
0.00803408
0.731835
0.0233746
0.725019
0.0399117
0.710624
0.0322778
0.706226
0.00826731
0.718956
-0.0262521
0.740677
-0.051092
0.763169
-0.0457281
0.769755
-0.00470692
0.758862
0.0229389
0.757579
0.0133951
0.762994
-0.00648201
0.770031
-0.0223375
0.770519
0.00281126
0.760789
0.00406432
0.763489
-0.0183107
0.761982
-0.00155867
0.763135
-0.00391047
0.763389
0.0105302
0.74249
0.0289107
0.735355
0.0103524
0.745365
-0.0139162
0.742553
-0.0101243
0.719488
0.0321151
0.688745
0.0347901
0.668778
0.0169771
0.626274
0.080819
0.558163
0.144469
0.487356
0.0766757
-0.00296166
0.100736
-0.224587
0.188182
-0.209093
0.268947
-0.201481
0.343683
-0.187603
0.411469
-0.170537
0.472617
-0.158094
0.526162
-0.149013
0.570457
-0.14618
0.601317
-0.133376
0.627067
-0.09012
0.637649
-0.0354985
0.67466
-0.0466277
0.737681
-0.0837566
0.776003
-0.0768995
0.805083
-0.0651696
0.821257
-0.0545876
0.813976
-0.0431583
0.822063
-0.0527565
0.811648
-0.0107112
0.815782
-0.0173653
0.843908
-0.0251045
0.833676
0.00374403
0.827096
-0.00992496
0.844147
-0.041741
0.855213
-0.0895403
0.807131
-0.0270989
0.787643
0.0469874
0.828797
0.0162974
0.852238
-0.000533621
0.85062
0.0206821
0.847108
0.0246672
0.849324
-0.0184565
0.830995
-0.0215093
0.777719
0.0675048
0.760472
0.0569697
0.759128
-0.021269
0.768993
-0.0167111
0.804914
0.00299089
0.821211
-0.0194719
0.82558
-0.0255141
0.819143
-0.0163128
0.801005
0.0465523
0.7677
0.0797555
0.771382
0.00883266
0.802653
-0.0215209
0.81767
-0.0218408
0.838756
-0.0809612
0.864649
-0.0707021
0.878618
-0.00873303
0.869662
0.0409302
0.841933
0.0761644
0.795684
0.0526271
0.767286
0.0454072
0.79037
-0.00442675
0.809931
-0.0219218
0.80506
-0.00174298
0.764628
0.0212485
0.75417
0.00475811
0.786469
-0.0551899
0.774715
0.00385511
0.783376
0.0116233
0.825163
-0.0410871
0.850031
-0.0369528
0.845273
0.0254143
0.804523
0.0752592
0.797429
-0.00943894
0.799762
-0.0495756
0.80743
-0.0540902
0.822673
-0.0505787
0.827572
-0.0122002
0.848333
-0.012727
0.857814
0.0138928
0.859604
0.0381213
0.857041
0.0348407
0.850214
0.0150943
0.8399
-0.0159379
0.857057
-0.0682498
0.894037
-0.0827078
0.913272
-0.0239421
0.916692
0.0195183
0.920285
0.0098024
0.931309
-0.0175067
0.938764
-0.0297926
0.925582
0.0159929
0.887679
0.0419675
0.877355
-0.00798606
0.858292
0.017504
0.86566
-0.0112787
0.906085
-0.0298945
0.910242
0.0247531
0.902263
0.0183313
0.878332
0.0100156
0.851726
0.0164818
0.822937
0.0609035
0.760536
0.0971917
0.712275
0.0652372
0.687973
0.105121
0.619588
0.212854
0.503928
0.192336
0.0663759
0.10997
-0.329557
0.206631
-0.305754
0.295392
-0.290243
0.37742
-0.269631
0.451547
-0.244663
0.517284
-0.223831
0.571478
-0.203207
0.607194
-0.181895
0.639737
-0.165919
0.659732
-0.110114
0.706874
-0.0826398
0.783197
-0.12295
0.831835
-0.132395
0.867876
-0.112939
0.897287
-0.0945799
0.917724
-0.0750243
0.930316
-0.0557502
0.938591
-0.0610302
0.946305
-0.0184244
0.950087
-0.0211462
0.936419
-0.0114363
0.896286
0.0438779
0.899739
-0.013377
0.92554
-0.0675411
0.896787
-0.0607871
0.839158
0.0305308
0.852085
0.0340618
0.9051
-0.036717
0.916157
-0.01159
0.895638
0.0412021
0.89193
0.0283758
0.891186
-0.0177122
0.839654
0.0300228
0.825194
0.0819659
0.827768
0.0543965
0.798883
0.007616
0.815122
-0.0329494
0.849954
-0.0318411
0.85238
-0.0218975
0.831502
-0.00463567
0.83458
-0.0193907
0.850322
0.0308111
0.824192
0.105885
0.836049
-0.0030249
0.873754
-0.0592256
0.875273
-0.0233598
0.85066
-0.0563476
0.868116
-0.0881585
0.916375
-0.0569916
0.924776
0.0325292
0.908476
0.0924636
0.860607
0.100497
0.862312
0.0437016
0.895852
-0.0379661
0.885749
-0.0118191
0.873814
0.0101914
0.85751
0.0375524
0.838517
0.0237514
0.813329
-0.0300019
0.838671
-0.0214876
0.887095
-0.0368005
0.90365
-0.0576427
0.922243
-0.0555457
0.923234
0.0244227
0.901694
0.0967994
0.860704
0.0315512
0.851856
-0.0407282
0.840328
-0.0425625
0.833093
-0.0433438
0.850754
-0.0298617
0.866066
-0.028039
0.896795
-0.0168364
0.911994
0.0229217
0.91196
0.034875
0.881277
0.045777
0.887204
-0.0218657
0.892876
-0.073922
0.910397
-0.100228
0.966572
-0.0801176
0.985743
0.000346865
0.994311
0.00123496
1.00031
-0.0235096
1.00535
-0.0348322
1.00145
0.0198951
0.98846
0.0549584
0.949701
0.030772
0.942721
0.0244842
0.942054
-0.0106115
0.949896
-0.0377366
0.984154
-0.00950439
0.973259
0.0292258
0.943622
0.0396531
0.890872
0.0692318
0.84825
0.103526
0.811044
0.134397
0.732423
0.143858
0.673103
0.164442
0.622611
0.263346
0.502408
0.312539
0.146585
0.10838
-0.432937
0.20499
-0.402364
0.293722
-0.378975
0.375967
-0.351875
0.450468
-0.319164
0.516355
-0.289718
0.570605
-0.257456
0.607594
-0.218884
0.617954
-0.176279
0.667084
-0.159244
0.756087
-0.171642
0.816511
-0.183374
0.858108
-0.173991
0.890331
-0.145162
0.916682
-0.12093
0.936088
-0.0944302
0.949144
-0.0688051
0.956231
-0.0681167
0.960335
-0.0225274
0.965865
-0.0266756
0.967302
-0.0128727
0.958617
0.0525638
0.941805
0.00343484
0.91
-0.035735
0.845523
0.00369066
0.815736
0.0603188
0.86774
-0.0179415
0.913981
-0.0829581
0.931572
-0.0291799
0.932864
0.0399106
0.912043
0.049198
0.849706
0.0446246
0.830484
0.0492459
0.863175
0.0492752
0.862317
0.0552553
0.83765
0.0322831
0.842849
-0.0381482
0.86036
-0.0493512
0.82121
0.0172527
0.803511
0.0130634
0.800696
-0.0165755
0.815396
0.016111
0.867048
0.0542338
0.896248
-0.0322247
0.904849
-0.0678262
0.896721
-0.0152318
0.881956
-0.0415827
0.854225
-0.0604279
0.867086
-0.0698519
0.910019
-0.0104045
0.920973
0.0815095
0.92861
0.09286
0.934326
0.0379853
0.911427
-0.0150669
0.883337
0.01627
0.84271
0.0508184
0.837081
0.0431818
0.858789
0.00204269
0.829847
-0.0010596
0.861438
-0.0530795
0.913822
-0.0891846
0.914252
-0.0580722
0.908356
-0.04965
0.909794
0.0229845
0.912345
0.0942476
0.899128
0.0447678
0.87345
-0.0150497
0.867603
-0.036716
0.84745
-0.0231912
0.84296
-0.0253717
0.848442
-0.033521
0.860152
-0.0285467
0.903576
-0.0205026
0.909414
0.029036
0.918112
0.0370791
0.93937
-0.0431238
0.936979
-0.0715313
0.911688
-0.0749374
0.907153
-0.0755827
0.94492
-0.03742
0.975565
-0.0294099
0.979812
-0.0277568
0.956354
-0.0113745
0.970532
0.00571755
1.00596
0.0195333
0.988342
0.0483865
0.991989
0.0208373
1.00482
-0.0234448
0.996766
-0.0296805
0.986681
0.000580826
0.963882
0.0520241
0.928612
0.0749241
0.883131
0.114712
0.82035
0.166306
0.765555
0.189192
0.708211
0.201202
0.650785
0.221868
0.605821
0.30831
0.496813
0.421547
0.223936
0.0980573
-0.525994
0.186774
-0.49108
0.268521
-0.460721
0.344858
-0.428212
0.414633
-0.388939
0.476718
-0.351802
0.528796
-0.309534
0.569603
-0.259692
0.597602
-0.204278
0.655764
-0.217406
0.73092
-0.246798
0.780559
-0.233012
0.816751
-0.210182
0.844407
-0.172818
0.865738
-0.14226
0.88024
-0.108932
0.883393
-0.0719573
0.861075
-0.0457982
0.869887
-0.0313384
0.872333
-0.0291211
0.883736
-0.0242754
0.919811
0.0164895
0.895093
0.0281536
0.833653
0.0257062
0.780944
0.0564005
0.809188
0.0320752
0.859335
-0.0680879
0.87171
-0.095332
0.879841
-0.037311
0.88281
0.0369431
0.867786
0.0642224
0.839876
0.0725345
0.805233
0.0838894
0.811091
0.0434184
0.844688
0.0216579
0.863681
0.0132912
0.870472
-0.0449387
0.854672
-0.0335508
0.836815
0.03511
0.816352
0.0335266
0.767295
0.0324817
0.774682
0.00872379
0.839606
-0.0106901
0.860466
-0.0530843
0.861659
-0.0690194
0.853106
-0.00667809
0.816475
-0.00495212
0.798485
-0.0424374
0.811474
-0.0828415
0.842184
-0.0411143
0.875177
0.0485163
0.89965
0.0683871
0.907905
0.0297305
0.897431
-0.00459341
0.868635
0.0450664
0.817009
0.102444
0.820211
0.0399791
0.848198
-0.0259438
0.847593
-0.000454721
0.863979
-0.069466
0.879407
-0.104613
0.866311
-0.0449764
0.830904
-0.0142432
0.828973
0.0249155
0.855061
0.0681596
0.86165
0.0381778
0.864162
-0.0175616
0.861424
-0.0339779
0.847534
-0.00930196
0.805356
0.0168064
0.802266
-0.0304314
0.842644
-0.0689249
0.866809
-0.0446671
0.882464
0.0133804
0.885147
0.0343963
0.876271
-0.0342483
0.872811
-0.0680714
0.877305
-0.0794313
0.868448
-0.0667267
0.888511
-0.0574831
0.922449
-0.0633476
0.925205
-0.0305134
0.910891
0.00293979
0.92132
-0.00471161
0.929993
0.01086
0.936595
0.0417845
0.956895
0.000537705
0.949832
-0.0163817
0.929753
-0.00960222
0.905153
0.0251811
0.876354
0.0808228
0.819902
0.131376
0.776965
0.15765
0.747743
0.195528
0.682179
0.254756
0.607867
0.275514
0.57623
0.253505
0.563683
0.320857
0.482958
0.502272
0.285636
0.0815452
-0.602539
0.156302
-0.565838
0.225367
-0.529786
0.290717
-0.493562
0.351486
-0.449707
0.405906
-0.406222
0.45126
-0.354888
0.493458
-0.301889
0.541553
-0.252372
0.597614
-0.273467
0.649113
-0.298297
0.687776
-0.271674
0.716933
-0.239338
0.738889
-0.194774
0.754976
-0.158346
0.766095
-0.120051
0.770043
-0.0759046
0.760916
-0.03667
0.77628
-0.046702
0.80142
-0.0542599
0.810069
-0.0329246
0.815382
0.0111776
0.796124
0.0474125
0.76322
0.0586106
0.741123
0.0784983
0.750653
0.0225463
0.766773
-0.0842077
0.764204
-0.0927626
0.738819
-0.0119256
0.742791
0.0329722
0.767792
0.0392224
0.764361
0.0759657
0.763076
0.0851744
0.767036
0.0394596
0.771361
0.0173328
0.780875
0.00377766
0.786098
-0.0501618
0.780199
-0.0276512
0.773747
0.0415619
0.754112
0.0531623
0.716562
0.0700321
0.722428
0.00285733
0.768159
-0.0564206
0.786119
-0.0710441
0.771736
-0.0546364
0.751049
0.0140089
0.715376
0.030721
0.709618
-0.0366795
0.731972
-0.105196
0.753246
-0.0623884
0.784066
0.0176961
0.805173
0.047281
0.812792
0.0221106
0.801132
0.0070665
0.790523
0.055676
0.781489
0.111477
0.779737
0.0417317
0.781532
-0.0277391
0.777076
0.00400075
0.745914
-0.0383043
0.74621
-0.104909
0.762771
-0.0615378
0.727308
0.0212202
0.721852
0.0303706
0.751133
0.0388788
0.764223
0.0250873
0.764903
-0.0182419
0.762773
-0.0318485
0.760178
-0.00670628
0.754031
0.0229523
0.744951
-0.0213515
0.754856
-0.0788293
0.766596
-0.056408
0.776333
0.00364343
0.784258
0.0264717
0.764026
-0.0140165
0.765896
-0.0699417
0.750977
-0.0645133
0.757045
-0.0727942
0.804626
-0.105064
0.819115
-0.0778373
0.824866
-0.0362641
0.829475
-0.00166877
0.834172
-0.00940869
0.835688
0.00934348
0.8393
0.0381727
0.836649
0.00318847
0.818149
0.00211802
0.787647
0.0208999
0.746086
0.0667417
0.724729
0.10218
0.70109
0.155015
0.634888
0.223852
0.595425
0.234992
0.573866
0.276315
0.525747
0.323634
0.493437
0.285814
0.485395
0.328899
0.448969
0.538698
0.316432
0.0613284
-0.658868
0.117932
-0.622441
0.170061
-0.581915
0.220529
-0.54403
0.268918
-0.498096
0.312661
-0.449964
0.351438
-0.393664
0.385174
-0.335626
0.431301
-0.298499
0.480103
-0.322268
0.516779
-0.334973
0.547559
-0.302454
0.569127
-0.260905
0.584954
-0.210601
0.595736
-0.169128
0.603935
-0.12825
0.610979
-0.082948
0.618943
-0.0446329
0.630177
-0.0579353
0.639996
-0.064078
0.646755
-0.0396834
0.650507
0.00742671
0.638762
0.0591583
0.621077
0.0762962
0.612136
0.0874398
0.611264
0.023419
0.60975
-0.0826926
0.598743
-0.0817554
0.60365
-0.0168319
0.62033
0.0162926
0.626423
0.0331305
0.626269
0.0761201
0.626445
0.084999
0.628961
0.0369432
0.629725
0.0165693
0.615612
0.0178909
0.616747
-0.0512956
0.637772
-0.0486762
0.641662
0.0376718
0.631125
0.0637003
0.620877
0.0802796
0.626031
-0.00229653
0.645405
-0.0757945
0.655577
-0.0812152
0.642523
-0.0415825
0.621401
0.0351307
0.610163
0.0419587
0.603749
-0.0302646
0.584517
-0.085964
0.600285
-0.0781565
0.637979
-0.0199982
0.653206
0.0320546
0.654506
0.0208103
0.650745
0.0108272
0.651799
0.0546221
0.648683
0.114594
0.645804
0.0446098
0.645256
-0.0271912
0.644803
0.00445444
0.63953
-0.0330322
0.640606
-0.105985
0.63978
-0.0607114
0.626197
0.0348035
0.623041
0.0335264
0.626954
0.0349649
0.627198
0.0248432
0.620517
-0.0115609
0.597128
-0.00845939
0.598465
-0.00804356
0.619412
0.00200449
0.624233
-0.0261722
0.630277
-0.0848736
0.644
-0.0701307
0.65403
-0.0063876
0.648854
0.0316484
0.641851
-0.00701426
0.644501
-0.0725921
0.641981
-0.0619934
0.646052
-0.0768655
0.660999
-0.120011
0.671112
-0.0879506
0.674471
-0.0396228
0.673448
-0.000645901
0.671551
-0.00751219
0.672782
0.00811297
0.671004
0.0399501
0.65818
0.0160131
0.63901
0.0212876
0.610436
0.0494741
0.587175
0.0900023
0.564521
0.124835
0.527832
0.191704
0.491872
0.259812
0.458937
0.267927
0.423677
0.311574
0.385335
0.361976
0.356182
0.314967
0.355391
0.32969
0.369763
0.524327
0.303733
0.0394495
-0.693317
0.0754578
-0.658449
0.108199
-0.614656
0.141154
-0.576985
0.174382
-0.531324
0.202862
-0.478445
0.23219
-0.422992
0.264638
-0.368073
0.30058
-0.33444
0.332571
-0.354259
0.355598
-0.358
0.372312
-0.319168
0.385087
-0.27368
0.395676
-0.221188
0.400609
-0.17406
0.404548
-0.132188
0.410401
-0.0888014
0.419603
-0.0538334
0.425548
-0.0638805
0.430131
-0.0686599
0.435646
-0.0451975
0.439867
0.003206
0.434111
0.0649151
0.42366
0.0867485
0.417103
0.0939973
0.41387
0.0266523
0.41745
-0.0862714
0.424278
-0.0885829
0.435161
-0.0277151
0.442488
0.00896664
0.441049
0.0345698
0.433768
0.0834017
0.430139
0.0886284
0.432943
0.0341401
0.436902
0.0126103
0.436496
0.0182973
0.436036
-0.0508352
0.44841
-0.0610501
0.455717
0.0303649
0.449623
0.0697952
0.44604
0.0838622
0.448698
-0.00495434
0.46196
-0.0890563
0.470894
-0.0901489
0.464548
-0.0352361
0.445493
0.0541857
0.435047
0.0524042
0.428046
-0.0232634
0.42026
-0.0781779
0.43484
-0.0927368
0.452652
-0.0378099
0.458301
0.0264053
0.452208
0.0269041
0.449146
0.0138885
0.451886
0.0518824
0.450775
0.115705
0.45054
0.0448447
0.452018
-0.02867
0.454541
0.00193183
0.454575
-0.0330669
0.455508
-0.106917
0.460114
-0.065318
0.459037
0.03588
0.453658
0.0389054
0.449212
0.0394102
0.445902
0.0281531
0.435342
-0.00100068
0.41847
0.00841249
0.416214
-0.00578824
0.424882
-0.00666348
0.433862
-0.0351523
0.447755
-0.098767
0.463061
-0.0854366
0.469812
-0.0131387
0.463788
0.0376723
0.459282
-0.00250824
0.460069
-0.0733795
0.455521
-0.0574458
0.452472
-0.0738166
0.458865
-0.126404
0.469951
-0.0990366
0.474033
-0.0437044
0.474748
-0.00136078
0.466333
0.000902532
0.458734
0.0157115
0.452631
0.0460529
0.438043
0.0306013
0.422312
0.0370184
0.40381
0.0679768
0.386413
0.107398
0.365733
0.145515
0.340702
0.216734
0.313545
0.286969
0.282102
0.29937
0.248537
0.345139
0.216594
0.393918
0.1889
0.342661
0.18057
0.33802
0.21612
0.488777
0.266067
0.017279
-0.705596
0.031615
-0.672785
0.0443935
-0.627434
0.0584951
-0.591087
0.0746087
-0.547437
0.0900059
-0.493842
0.106696
-0.439682
0.126891
-0.388268
0.149099
-0.356647
0.164992
-0.370152
0.174623
-0.36763
0.180974
-0.325519
0.183782
-0.276488
0.184551
-0.221957
0.182203
-0.171712
0.180307
-0.130291
0.182208
-0.0907026
0.18803
-0.0596548
0.189053
-0.0649021
0.189465
-0.0690719
0.193119
-0.048851
0.198972
-0.00264539
0.198057
0.0658305
0.191679
0.0931272
0.185865
0.0998116
0.181955
0.0305635
0.18647
-0.0907862
0.198795
-0.100907
0.211912
-0.0408316
0.21684
0.00403901
0.213992
0.0374185
0.203885
0.0935092
0.19803
0.0944837
0.200297
0.0318736
0.206027
0.00688027
0.209092
0.0152332
0.206565
-0.0483081
0.216858
-0.0713433
0.22684
0.0203834
0.225088
0.0715474
0.225639
0.0833117
0.226368
-0.00568366
0.235508
-0.098196
0.242985
-0.0976251
0.24227
-0.034521
0.232246
0.064209
0.222166
0.0624847
0.211682
-0.0127796
0.204183
-0.070679
0.213938
-0.102491
0.226189
-0.0500609
0.227911
0.0246826
0.215685
0.0391299
0.207739
0.0218351
0.212597
0.0470245
0.216514
0.111787
0.218561
0.0427979
0.221807
-0.0319167
0.2254
-0.00166102
0.226336
-0.0340028
0.227623
-0.108205
0.236828
-0.0745234
0.241513
0.031195
0.237534
0.0428841
0.232892
0.0440522
0.229955
0.0310897
0.215929
0.0130256
0.196229
0.0281117
0.190195
0.000245589
0.198747
-0.0152158
0.208693
-0.0450985
0.218445
-0.108519
0.234732
-0.101724
0.24522
-0.0236266
0.241232
0.0416603
0.237256
0.00146734
0.236404
-0.0725276
0.227559
-0.0486017
0.21819
-0.0644469
0.219896
-0.128111
0.231602
-0.110742
0.236972
-0.0490746
0.236187
-0.000575848
0.225294
0.0117954
0.214069
0.0269363
0.204935
0.0551869
0.191033
0.0445036
0.179472
0.048579
0.167063
0.0803852
0.155757
0.118705
0.140115
0.161157
0.122814
0.234035
0.105388
0.304395
0.081442
0.323316
0.058045
0.368536
0.0358022
0.416161
0.00738694
0.371077
-0.0127072
0.358115
0.0164627
0.459607
0.228074
-0.00436983
-0.696226
-0.0115477
-0.665607
-0.0187938
-0.620188
-0.0237291
-0.586151
-0.0253423
-0.545824
-0.0251885
-0.493995
-0.0228639
-0.442006
-0.0170838
-0.394048
-0.0100977
-0.363633
-0.00998979
-0.37026
-0.0142371
-0.363382
-0.0201439
-0.319611
-0.028634
-0.267997
-0.0375749
-0.213016
-0.047499
-0.161787
-0.0555682
-0.122221
-0.0582088
-0.0880614
-0.0567224
-0.0611405
-0.0597527
-0.0618711
-0.0622987
-0.0665253
-0.0607226
-0.0504264
-0.0540986
-0.00926868
-0.0513409
0.0630735
-0.0550406
0.0968277
-0.0613905
0.106162
-0.0675611
0.0367348
-0.0676333
-0.0907134
-0.0597076
-0.108832
-0.0464366
-0.054102
-0.0392626
-0.00313437
-0.0391635
0.03732
-0.0474158
0.101762
-0.0531308
0.100199
-0.0518405
0.0305837
-0.0471748
0.00221496
-0.0428404
0.0108992
-0.0476772
-0.0434709
-0.0413345
-0.0776857
-0.0285537
0.00760282
-0.0237617
0.0667556
-0.0187057
0.078256
-0.0196859
-0.00470332
-0.016711
-0.101171
-0.0118784
-0.102458
-0.00741837
-0.038981
-0.00883413
0.0656248
-0.0163127
0.0699633
-0.0296695
0.000577216
-0.04224
-0.0581086
-0.0383135
-0.106418
-0.0283738
-0.0600006
-0.0252542
0.021563
-0.0376284
0.051504
-0.0486725
0.0328791
-0.0402485
0.0386004
-0.0294778
0.101016
-0.0274887
0.0408087
-0.0279297
-0.0314759
-0.0259496
-0.00364119
-0.0253406
-0.0346121
-0.0281904
-0.105355
-0.0187465
-0.0839674
-0.00756822
0.0200165
-0.00541857
0.0407343
-0.00519466
0.0438281
-0.00512601
0.0310208
-0.0215917
0.0294911
-0.0449575
0.0514773
-0.053171
0.00845887
-0.0467018
-0.0216852
-0.0390844
-0.052716
-0.0353935
-0.11221
-0.022465
-0.114653
-0.0067295
-0.0393623
-0.0030659
0.0379965
-0.00443147
0.00283276
-0.00715348
-0.0698057
-0.0205038
-0.0352515
-0.0362983
-0.0486526
-0.0400722
-0.124337
-0.0292103
-0.121604
-0.0225836
-0.0557014
-0.0241564
0.000996897
-0.0356347
0.0232737
-0.0471144
0.0384159
-0.056521
0.0645935
-0.0683283
0.0563109
-0.0760361
0.0562868
-0.0834304
0.0877795
-0.0896016
0.124876
-0.0987406
0.170297
-0.10605
0.241344
-0.112613
0.310958
-0.126025
0.336729
-0.137755
0.380266
-0.147891
0.426298
-0.169415
0.3926
-0.192177
0.380877
-0.171159
0.438588
0.194562
-0.0251204
-0.666106
-0.0527964
-0.637931
-0.0789261
-0.594058
-0.102292
-0.562785
-0.121569
-0.526547
-0.137175
-0.478389
-0.149834
-0.429347
-0.159184
-0.384698
-0.167506
-0.355311
-0.182165
-0.355601
-0.200908
-0.344639
-0.220077
-0.300442
-0.239813
-0.24826
-0.258515
-0.194313
-0.275885
-0.144417
-0.289678
-0.108427
-0.297432
-0.0803068
-0.300357
-0.0582154
-0.304935
-0.0572927
-0.307955
-0.0635037
-0.306572
-0.0518096
-0.300104
-0.0157354
-0.295118
0.0580881
-0.297325
0.099035
-0.305842
0.11468
-0.31374
0.0446336
-0.318605
-0.0858482
-0.31785
-0.109587
-0.308791
-0.0631598
-0.301811
-0.0101145
-0.299327
0.0348373
-0.303322
0.105757
-0.305012
0.101889
-0.301406
0.0269788
-0.296627
-0.00256406
-0.292896
0.00716858
-0.299889
-0.0364775
-0.298884
-0.0786903
-0.285918
-0.00536319
-0.273957
0.0547947
-0.263947
0.068246
-0.263894
-0.00475626
-0.266672
-0.0983921
-0.267586
-0.101544
-0.261138
-0.0454293
-0.254954
0.0594416
-0.257539
0.0725476
-0.273144
0.0161825
-0.291187
-0.0400652
-0.294497
-0.103109
-0.289031
-0.0654667
-0.283236
0.0157682
-0.289124
0.0573916
-0.297874
0.0416295
-0.288043
0.0287692
-0.271473
0.0844467
-0.266609
0.0359443
-0.272509
-0.0255765
-0.274898
-0.00125241
-0.274506
-0.0350039
-0.280885
-0.0989763
-0.275447
-0.0894054
-0.261125
0.00569402
-0.250145
0.0297546
-0.243039
0.0367215
-0.240037
0.0280195
-0.259053
0.0485063
-0.284962
0.0773869
-0.294598
0.0180937
-0.291029
-0.0252536
-0.284726
-0.0590193
-0.284954
-0.111982
-0.278164
-0.121443
-0.260808
-0.0567186
-0.248015
0.0252038
-0.244871
-0.000311782
-0.249953
-0.0647236
-0.267197
-0.0180083
-0.287333
-0.028516
-0.296887
-0.114784
-0.291058
-0.127434
-0.285276
-0.0614829
-0.287059
0.00277961
-0.297787
0.0340019
-0.307368
0.0479971
-0.314117
0.0713424
-0.322196
0.0643896
-0.32702
0.0611101
-0.328872
0.0896322
-0.331406
0.127409
-0.334161
0.173051
-0.328872
0.236055
-0.32637
0.308457
-0.330745
0.341104
-0.329567
0.379087
-0.325042
0.421773
-0.332595
0.400153
-0.343436
0.391718
-0.317853
0.413005
0.162592
-0.0444963
-0.61661
-0.0910526
-0.591375
-0.13446
-0.550651
-0.174735
-0.52251
-0.210597
-0.490685
-0.241546
-0.44744
-0.26878
-0.402113
-0.292819
-0.360659
-0.315712
-0.332418
-0.343974
-0.327339
-0.376339
-0.312273
-0.408662
-0.268119
-0.439675
-0.217247
-0.467934
-0.166054
-0.49267
-0.119681
-0.51192
-0.0891763
-0.524316
-0.0679109
-0.531244
-0.0512866
-0.537396
-0.0511404
-0.540281
-0.0606184
-0.532907
-0.0591828
-0.526777
-0.0218652
-0.519447
0.0507584
-0.518894
0.0984827
-0.534066
0.129853
-0.544597
0.0551642
-0.555694
-0.0747506
-0.562658
-0.102622
-0.558657
-0.06716
-0.553321
-0.0154507
-0.549144
0.030661
-0.548211
0.104824
-0.544192
0.0978708
-0.533819
0.0166059
-0.530421
-0.00596186
-0.532331
0.00907886
-0.538806
-0.0300015
-0.539193
-0.0783035
-0.527075
-0.0174809
-0.50935
0.0370703
-0.493715
0.0526102
-0.490567
-0.00790415
-0.498324
-0.0906342
-0.507158
-0.0927099
-0.500218
-0.0523693
-0.483209
0.0424331
-0.481131
0.0704693
-0.504987
0.0400383
-0.529248
-0.0158041
-0.539491
-0.0928658
-0.539319
-0.0656382
-0.531442
0.00789116
-0.526884
0.0528336
-0.525303
0.0400481
-0.511618
0.0150847
-0.487539
0.0603672
-0.48166
0.030065
-0.49828
-0.00895609
-0.509975
0.0104419
-0.512104
-0.0328751
-0.519023
-0.0920575
-0.517955
-0.0904735
-0.500568
-0.0116932
-0.478179
0.00736612
-0.457846
0.0163877
-0.449128
0.0193016
-0.477655
0.0770329
-0.51021
0.109942
-0.517923
0.0258066
-0.516567
-0.0266099
-0.511974
-0.063613
-0.513759
-0.110197
-0.512751
-0.12245
-0.495891
-0.0735794
-0.471517
0.000829853
-0.463621
-0.00820748
-0.47732
-0.0510248
-0.498018
0.00268957
-0.521573
-0.00496101
-0.538741
-0.0976157
-0.538065
-0.128109
-0.533078
-0.0664709
-0.535727
0.00542891
-0.546534
0.0448091
-0.552911
0.0543742
-0.552256
0.0706868
-0.554967
0.0671006
-0.560332
0.066475
-0.564926
0.0942261
-0.566102
0.128586
-0.561598
0.168548
-0.552001
0.226457
-0.535964
0.29242
-0.520605
0.325745
-0.504249
0.362731
-0.483584
0.401108
-0.472674
0.389243
-0.462607
0.381651
-0.424339
0.374737
0.130495
-0.0618844
-0.549725
-0.125095
-0.528164
-0.183743
-0.492003
-0.238949
-0.467304
-0.289705
-0.439929
-0.334758
-0.402387
-0.375368
-0.361502
-0.412739
-0.323288
-0.448639
-0.296518
-0.488679
-0.287299
-0.532843
-0.268109
-0.57725
-0.223712
-0.618984
-0.175512
-0.656335
-0.128702
-0.688229
-0.0877875
-0.712568
-0.0648371
-0.728946
-0.0515322
-0.739487
-0.040746
-0.748457
-0.0421693
-0.757228
-0.0518474
-0.762423
-0.0539868
-0.760628
-0.02366
-0.731572
0.0217022
-0.718625
0.0855361
-0.733702
0.144931
-0.744142
0.0656046
-0.758327
-0.0605649
-0.774835
-0.0861142
-0.7862
-0.0557946
-0.778934
-0.0227164
-0.771275
0.0230026
-0.767807
0.101356
-0.755288
0.0853521
-0.723274
-0.0154081
-0.717501
-0.0117342
-0.739448
0.0310254
-0.747963
-0.0214857
-0.749386
-0.0768806
-0.737207
-0.0296598
-0.714685
0.0145485
-0.69124
0.0291651
-0.672185
-0.0269591
-0.688458
-0.0743609
-0.718519
-0.0626495
-0.713936
-0.0569521
-0.677034
0.00553132
-0.669241
0.0626766
-0.710023
0.0808197
-0.738595
0.0127682
-0.754654
-0.0768071
-0.763041
-0.0572507
-0.756252
0.0011018
-0.735846
0.0324279
-0.719869
0.0240704
-0.704101
-0.000683325
-0.652345
0.00861108
-0.647768
0.025488
-0.703696
0.0469725
-0.724875
0.0316204
-0.718556
-0.0391942
-0.724422
-0.086191
-0.731298
-0.0835978
-0.71102
-0.0319713
-0.677426
-0.0262287
-0.622548
-0.0384899
-0.618874
0.0156271
-0.681545
0.139704
-0.709611
0.138008
-0.710194
0.0263902
-0.708373
-0.0284318
-0.703313
-0.0686723
-0.704116
-0.109395
-0.709799
-0.116768
-0.697994
-0.0853842
-0.641813
-0.0553513
-0.632115
-0.0179054
-0.684872
0.00173204
-0.720055
0.0378721
-0.746396
0.0213797
-0.761119
-0.0828925
-0.768881
-0.120347
-0.772796
-0.0625562
-0.766457
-0.00091015
-0.764861
0.0432132
-0.769509
0.0590223
-0.750354
0.0515318
-0.745116
0.0618622
-0.765284
0.0866431
-0.772499
0.101441
-0.770796
0.126883