/*--------------------------------*- C++ -*----------------------------------*\
| =========                 |                                                 |
| \\      /  F ield         | foam-extend: Open Source CFD                    |
|  \\    /   O peration     | Version:     5.0                                |
|   \\  /    A nd           | Web:         http://www.foam-extend.org         |
|    \\/     M anipulation  |                                                 |
\*---------------------------------------------------------------------------*/
FoamFile
{
    version     2.0;
    format      ascii;
    class       volVectorField;
    location    "0.045";
    object      U;
}
// * * * * * * * * * * * * * * * * * * * * * * * * * * * * * * * * * * * * * //

dimensions      [0 1 -1 0 0 0 0];

internalField   nonuniform List<vector> 
4000
(
(1.58051 -0.144746 0)
(4.37261 -0.194689 0)
(6.80498 -0.28413 0)
(9.6452 -0.267358 0)
(12.1717 -0.236827 0)
(14.4806 -0.237608 0)
(16.884 -0.287039 0)
(19.85 -0.408191 0)
(23.6347 -0.540123 0)
(26.9669 -0.338626 0)
(28.4244 -0.0665912 0)
(28.5207 0.103025 0)
(27.7153 0.218526 0)
(27.3511 0.144952 0)
(27.3881 -0.0292329 0)
(28.2477 -0.180642 0)
(30.1396 -0.354554 0)
(32.8568 -0.329799 0)
(35.4879 -0.421844 0)
(36.6135 -0.111774 0)
(36.0577 0.351954 0)
(35.2079 0.0390467 0)
(35.1446 -0.122012 0)
(36.4724 -0.26802 0)
(39.3593 -0.596687 0)
(44.55 -0.839211 0)
(46.4165 -0.0229784 0)
(43.693 0.859974 0)
(40.2829 0.487299 0)
(38.271 0.0958679 0)
(37.6653 -0.0330296 0)
(38.1735 -0.163313 0)
(40.2074 -0.369835 0)
(41.3157 -0.170389 0)
(41.583 0.0895712 0)
(42.3205 -0.277198 0)
(42.0668 0.177896 0)
(39.7102 0.708617 0)
(38.2926 0.148155 0)
(37.5991 -0.264142 0)
(39.5321 -0.295855 0)
(39.8714 0.118428 0)
(39.4361 -0.190768 0)
(40.0885 0.0341179 0)
(37.8032 0.653288 0)
(36.1487 0.201368 0)
(36.4795 -0.431635 0)
(40.2707 -0.634695 0)
(41.2758 0.144709 0)
(39.4804 0.565889 0)
(37.3388 0.131124 0)
(37.5361 -0.307405 0)
(39.4623 -0.369033 0)
(39.1931 0.20198 0)
(37.861 0.519746 0)
(36.4535 -0.00145286 0)
(36.4788 -0.282841 0)
(37.8445 -0.0585591 0)
(39.4704 -0.261653 0)
(41.5025 -0.576306 0)
(41.4984 0.312048 0)
(39.2785 0.77238 0)
(37.6199 0.109205 0)
(36.1112 0.0108655 0)
(35.8717 0.0387534 0)
(35.3254 0.0697516 0)
(36.6448 -0.137529 0)
(38.0728 -0.434021 0)
(40.8969 -0.379926 0)
(43.5726 -0.468758 0)
(44.327 0.0717381 0)
(42.0975 0.647973 0)
(39.0635 0.496452 0)
(36.8042 0.155705 0)
(36.0885 -0.0565657 0)
(36.7728 -0.158814 0)
(38.3426 -0.222235 0)
(40.2808 -0.218155 0)
(40.9981 -0.0130595 0)
(40.0606 0.156658 0)
(39.0019 0.248163 0)
(38.3092 0.0740569 0)
(38.6431 -0.15951 0)
(39.1702 0.037128 0)
(39.4369 -0.130438 0)
(40.3043 -0.221782 0)
(41.4606 -0.0495711 0)
(41.5413 -0.0666817 0)
(41.246 0.13607 0)
(40.9386 0.0358482 0)
(40.3161 0.00880218 0)
(40.6751 0.000718789 0)
(41.5894 -0.233555 0)
(41.9822 -0.045125 0)
(42.3871 -0.185255 0)
(43.3437 -0.314165 0)
(43.2059 0.220871 0)
(38.4932 0.728396 0)
(39.7314 -0.567073 0)
(41.6747 -1.08015 0)
(5.05331 -1.33303 0)
(14.4556 -1.36894 0)
(22.2212 -1.53144 0)
(30.4121 -1.43389 0)
(37.9414 -1.29276 0)
(44.8902 -1.26541 0)
(51.7343 -1.35701 0)
(59.0765 -1.68441 0)
(67.3825 -1.93966 0)
(73.8274 -1.15117 0)
(77.3401 -0.329389 0)
(78.35 0.0813896 0)
(78.3203 0.363103 0)
(80.011 0.00112126 0)
(81.4883 -0.303373 0)
(83.3003 -0.61578 0)
(86.7139 -1.20829 0)
(91.6677 -1.13349 0)
(96.3553 -1.06248 0)
(95.9687 -0.194892 0)
(97.504 0.740204 0)
(96.9157 -0.116764 0)
(97.2311 -0.439155 0)
(99.6736 -0.740228 0)
(104.149 -1.85756 0)
(112.727 -2.14911 0)
(112.921 0.332127 0)
(109.892 1.94946 0)
(106.943 1.04778 0)
(103.509 0.367802 0)
(101.768 0.11025 0)
(101.699 -0.358675 0)
(105.516 -0.986953 0)
(104.05 -0.269141 0)
(105.66 0.333296 0)
(105.527 -0.65242 0)
(104.307 0.467256 0)
(103.081 1.45158 0)
(102.264 0.177601 0)
(101.447 -0.485045 0)
(103.761 -0.707655 0)
(104.458 0.306344 0)
(103.937 -0.0799812 0)
(99.3976 0.383993 0)
(99.662 1.3899 0)
(98.074 0.198522 0)
(99.2957 -1.27217 0)
(104.166 -1.29876 0)
(104.14 0.425836 0)
(104.858 1.04854 0)
(101.347 0.475809 0)
(99.7185 -0.564696 0)
(100.713 -0.463028 0)
(94.5292 0.712632 0)
(98.0327 0.921512 0)
(96.8863 -0.122177 0)
(97.1282 -0.73922 0)
(98.6927 -0.227287 0)
(102.021 -0.654174 0)
(101.916 -0.984252 0)
(100.484 0.892831 0)
(101.608 1.20175 0)
(100.404 0.0991157 0)
(98.1005 0.39445 0)
(96.7822 0.307434 0)
(94.9783 -0.182379 0)
(100.277 -0.758112 0)
(102.077 -1.1387 0)
(106.435 -1.00059 0)
(109.748 -0.922386 0)
(108.603 0.373829 0)
(107.199 1.43891 0)
(104.064 1.19323 0)
(100.851 0.586935 0)
(98.2537 0.0527288 0)
(97.2812 -0.46717 0)
(101.468 -0.891717 0)
(106.357 -0.689142 0)
(107.716 0.0575906 0)
(104.97 0.446861 0)
(105.132 0.522233 0)
(104.675 0.0132577 0)
(105.416 -0.515841 0)
(106.565 0.0808622 0)
(106.534 -0.323999 0)
(106.875 -0.610504 0)
(108.995 -0.139432 0)
(108.66 -0.0989815 0)
(108.329 0.442477 0)
(107.787 0.226342 0)
(104.723 0.0887739 0)
(106.484 -0.199807 0)
(107.031 -0.630232 0)
(106.813 0.158474 0)
(105.689 -0.144474 0)
(103.995 -0.445601 0)
(101.157 1.10064 0)
(91.6251 2.373 0)
(92.2041 -0.703619 0)
(78.0839 -2.13976 0)
(8.1202 -4.33378 0)
(23.6551 -4.14137 0)
(36.2042 -4.22703 0)
(48.7951 -3.96303 0)
(60.3946 -3.60702 0)
(70.9643 -3.44922 0)
(80.8175 -3.50154 0)
(90.4258 -3.92958 0)
(99.6695 -4.06197 0)
(106.181 -2.48134 0)
(110.929 -0.787394 0)
(111.637 -0.0658782 0)
(113.182 -0.29012 0)
(121.696 -1.04109 0)
(126.485 -1.16049 0)
(130.785 -1.49259 0)
(134.236 -2.16592 0)
(136.297 -2.00648 0)
(140.212 -1.23825 0)
(131.617 -0.444927 0)
(141.213 0.455982 0)
(141.23 -0.368732 0)
(141.024 -0.736982 0)
(142.344 -1.22261 0)
(142.702 -3.56001 0)
(152.778 -3.41541 0)
(147.596 1.0137 0)
(145.157 2.99969 0)
(149.006 1.3428 0)
(146.746 0.740316 0)
(144.559 0.642325 0)
(139.995 -0.742572 0)
(148.077 -1.8108 0)
(144.648 0.166919 0)
(140.823 1.20841 0)
(136.348 -1.02526 0)
(139.198 0.245603 0)
(141.981 2.02698 0)
(143.283 -0.0230557 0)
(143.462 -0.942939 0)
(144.753 -1.06181 0)
(143.836 0.942414 0)
(141.022 1.27435 0)
(124.132 0.699318 0)
(137.52 1.22492 0)
(138.6 -0.0739842 0)
(141.933 -2.52069 0)
(145.594 -1.98961 0)
(142.602 0.427205 0)
(148.984 1.55845 0)
(144.266 1.57593 0)
(136.432 -0.203026 0)
(137.142 0.309868 0)
(123.725 1.00814 0)
(137.092 0.436061 0)
(137.118 -0.367129 0)
(136.537 -0.969967 0)
(135.054 -0.335979 0)
(139.008 -1.13615 0)
(138.192 -0.726331 0)
(126.954 1.20073 0)
(140.221 0.814809 0)
(142.136 -0.234824 0)
(141.985 0.790935 0)
(138.77 1.10919 0)
(132.917 -0.681496 0)
(143.413 -1.8379 0)
(142.731 -2.00772 0)
(147.721 -1.66489 0)
(147.185 -0.720169 0)
(138.802 0.518567 0)
(146.84 1.61707 0)
(146.596 1.912 0)
(145.036 1.27564 0)
(139.851 0.212178 0)
(142.175 -1.04385 0)
(145.156 -1.97908 0)
(151.186 -1.63922 0)
(153.84 0.0269566 0)
(153.603 0.939869 0)
(149.377 0.709307 0)
(154.634 -0.173091 0)
(151.499 -0.972501 0)
(155.24 0.0680696 0)
(153.78 -0.101586 0)
(150.802 -0.97571 0)
(153.808 -0.114174 0)
(151.382 -0.0618015 0)
(152.947 0.582853 0)
(153.22 0.948304 0)
(143.709 0.291011 0)
(150.287 -0.569923 0)
(148.977 -0.751035 0)
(146.862 0.841561 0)
(141.649 0.836549 0)
(134.809 0.162391 0)
(130.91 2.84741 0)
(116.203 5.38994 0)
(114.351 1.70259 0)
(83.5546 -1.30273 0)
(10.0607 -8.68907 0)
(30.0258 -8.12648 0)
(45.891 -7.92362 0)
(61.5028 -7.38985 0)
(75.8621 -6.72543 0)
(88.7801 -6.29554 0)
(100.302 -6.07947 0)
(110.503 -6.20976 0)
(118.407 -5.93373 0)
(121.449 -3.76253 0)
(128.836 -1.27195 0)
(126.057 -1.22909 0)
(143.394 -2.59685 0)
(152.251 -2.83477 0)
(158.57 -2.49883 0)
(163.493 -2.32995 0)
(165.553 -2.35248 0)
(159.652 -2.44041 0)
(169.884 -0.806097 0)
(154.031 -0.799813 0)
(170.077 -0.635879 0)
(169.572 -0.0926031 0)
(164.179 -0.674074 0)
(165.992 -1.85352 0)
(172.821 -4.47405 0)
(170.863 -2.52056 0)
(149.121 2.16078 0)
(163.028 1.92096 0)
(170.951 0.524408 0)
(171.479 1.02289 0)
(168.164 1.09086 0)
(170.533 -1.08238 0)
(170.649 -1.52196 0)
(160.477 2.16517 0)
(148.854 2.33083 0)
(158.58 -1.10171 0)
(143.57 -0.480693 0)
(160.752 1.05856 0)
(164.226 -0.71155 0)
(165.509 -1.2051 0)
(164.695 -0.90637 0)
(161.191 1.98182 0)
(160.402 3.17686 0)
(146.124 0.608874 0)
(159.926 -0.28296 0)
(163.073 -0.84906 0)
(166.52 -3.55677 0)
(168.848 -2.83947 0)
(174.107 0.029031 0)
(176.487 1.87768 0)
(172.748 3.06895 0)
(166.208 1.58181 0)
(152.391 1.65371 0)
(151.703 0.230644 0)
(163.051 -0.744207 0)
(163.526 -0.308036 0)
(159.372 -0.0909897 0)
(144.411 0.0360765 0)
(158.565 -1.98572 0)
(158.064 0.0484948 0)
(147.719 0.896439 0)
(164.602 -1.05416 0)
(169.013 -1.23923 0)
(170.431 1.18556 0)
(166.962 2.64295 0)
(154.767 -0.755286 0)
(164.944 -2.52528 0)
(155.613 -2.57143 0)
(166.912 -2.10134 0)
(162.833 -0.502445 0)
(166.783 -0.10146 0)
(170.941 1.0553 0)
(172.611 2.03539 0)
(172.822 1.63999 0)
(170.67 0.60065 0)
(168.964 -1.02002 0)
(166.822 -3.01465 0)
(176.104 -3.19463 0)
(181.157 -0.683084 0)
(183.696 1.15602 0)
(182.451 0.58792 0)
(186.569 -0.60944 0)
(187.055 -1.37827 0)
(187.056 0.48022 0)
(183.907 1.15241 0)
(171.634 -0.703422 0)
(178.387 0.395422 0)
(165.356 -0.318466 0)
(180.06 -0.400519 0)
(182.949 1.30789 0)
(181.17 0.57317 0)
(179.778 -0.229396 0)
(172.676 0.0613342 0)
(166.577 2.20036 0)
(163.256 3.14028 0)
(142.288 1.98855 0)
(140.753 4.6497 0)
(130.683 8.83573 0)
(124.475 6.42058 0)
(80.2695 1.47041 0)
(10.631 -13.8007 0)
(32.992 -12.82 0)
(50.4123 -12.2505 0)
(67.5341 -11.3943 0)
(83.31 -10.3491 0)
(97.3779 -9.52907 0)
(109.541 -8.80886 0)
(119.398 -8.23909 0)
(124.278 -7.44615 0)
(131.04 -4.85705 0)
(131.935 -2.80603 0)
(150.681 -4.23016 0)
(162.604 -5.37649 0)
(170.558 -4.71726 0)
(176.922 -3.98495 0)
(182.028 -3.21898 0)
(185.433 -2.49995 0)
(186.733 -2.87877 0)
(188.907 -0.733849 0)
(189.01 -1.0563 0)
(189.391 -0.846537 0)
(186.787 1.25814 0)
(171.871 -0.715622 0)
(187.251 -2.9836 0)
(184.787 -3.81589 0)
(175.214 0.17533 0)
(157.178 2.23547 0)
(180.981 -0.582608 0)
(183.856 -0.310554 0)
(184.003 1.57594 0)
(173.175 1.21495 0)
(183.824 -0.928138 0)
(174.604 0.288072 0)
(159.135 3.86912 0)
(169.129 2.7928 0)
(165.95 -0.290145 0)
(151.807 -1.28123 0)
(170.793 -0.851307 0)
(172.404 -1.10139 0)
(169.729 -0.784204 0)
(163.002 -0.941926 0)
(168.985 2.08633 0)
(171.765 4.70463 0)
(157.907 0.0676225 0)
(174.225 -2.06713 0)
(176.73 -1.20824 0)
(176.173 -3.61572 0)
(164.056 -3.99768 0)
(180.033 -1.51723 0)
(185.783 1.95524 0)
(185.246 4.33442 0)
(180.673 3.91169 0)
(163.509 2.23863 0)
(178.803 -1.18917 0)
(178.495 -0.998725 0)
(178.26 0.266384 0)
(171.796 1.58495 0)
(168.968 0.51983 0)
(168.677 -2.03376 0)
(157.848 -0.26352 0)
(173.42 -0.752954 0)
(180.994 -2.61854 0)
(183.98 -2.32816 0)
(184.295 1.35174 0)
(183.606 4.34923 0)
(177.696 0.453217 0)
(167.265 -2.33214 0)
(173.931 -2.50208 0)
(162.038 -2.39695 0)
(171.365 -1.11706 0)
(167.995 -1.03109 0)
(176.749 0.0989044 0)
(182.227 1.60521 0)
(184.216 1.77845 0)
(181.331 1.56582 0)
(170.415 -1.01741 0)
(184.649 -3.67977 0)
(172.778 -4.67565 0)
(190.698 -2.54843 0)
(195.455 0.627095 0)
(198.321 0.331495 0)
(200.33 -1.15027 0)
(201.184 -1.58885 0)
(199.358 1.0494 0)
(201.515 2.45475 0)
(195.154 0.605439 0)
(183.127 1.07947 0)
(194.574 -0.652603 0)
(181.917 -1.75154 0)
(197.873 0.316546 0)
(196.087 1.10069 0)
(193.316 1.09841 0)
(185.388 2.01697 0)
(169.428 4.10014 0)
(169.97 5.61446 0)
(156.451 5.09341 0)
(134.86 6.86975 0)
(129.968 12.0541 0)
(126.422 12.5581 0)
(77.8771 5.27331 0)
(9.95302 -19.0935 0)
(32.8124 -17.7289 0)
(50.0775 -16.7482 0)
(67.1739 -15.55 0)
(83.0674 -14.1032 0)
(97.2138 -12.844 0)
(109.336 -11.5137 0)
(119.166 -10.0121 0)
(124.965 -8.52841 0)
(121.345 -6.59892 0)
(144.316 -6.31697 0)
(158.411 -7.70287 0)
(168.249 -7.68877 0)
(175.321 -6.48324 0)
(181.088 -5.4188 0)
(185.634 -4.2608 0)
(189.002 -3.14545 0)
(191.114 -3.2477 0)
(191.125 -0.994788 0)
(192.532 -1.12618 0)
(192.658 -0.472205 0)
(195.088 2.39379 0)
(188.813 -0.42075 0)
(187.366 -2.71715 0)
(178.757 -1.32975 0)
(160.01 2.41863 0)
(162.857 0.319238 0)
(182.274 -3.13969 0)
(186.134 -1.01839 0)
(187.401 2.03464 0)
(184.58 1.87848 0)
(181.178 0.63911 0)
(160.235 2.08804 0)
(169.503 3.40749 0)
(174.268 2.83912 0)
(174.619 0.927347 0)
(158.692 -1.91108 0)
(175.111 -2.10791 0)
(172.26 -0.148764 0)
(156.979 0.111639 0)
(165.065 -0.961762 0)
(153.572 1.39323 0)
(171.829 4.23228 0)
(175.878 -0.967793 0)
(180.99 -3.29636 0)
(181.712 -0.964288 0)
(179.553 -2.56628 0)
(173.624 -3.86816 0)
(165.03 -3.11946 0)
(180.725 0.726432 0)
(184.442 4.53811 0)
(186.254 4.88109 0)
(185.156 2.03552 0)
(186.523 -1.44432 0)
(176.785 0.0824702 0)
(179.145 1.56736 0)
(158.128 2.20354 0)
(174.078 0.689818 0)
(172.528 -0.873628 0)
(160.103 -1.97293 0)
(180.283 -3.20063 0)
(185.025 -2.98133 0)
(184.439 -2.6487 0)
(178.111 1.30327 0)
(183.75 4.93977 0)
(182.193 1.91408 0)
(178.593 -1.38718 0)
(170.776 -2.03811 0)
(176.277 -1.81863 0)
(162.747 -1.42974 0)
(173.579 -1.47173 0)
(164.322 -1.20167 0)
(179.656 0.0713758 0)
(183.719 1.70356 0)
(180.281 2.02198 0)
(186.572 -1.69186 0)
(189.329 -3.69433 0)
(185.804 -4.57442 0)
(178.565 -3.82435 0)
(183.134 -0.748085 0)
(194.372 -0.704518 0)
(196.939 -1.32589 0)
(196.77 -1.144 0)
(183.821 0.702598 0)
(204.391 2.01667 0)
(199.69 2.06099 0)
(193.902 1.12587 0)
(203.348 -0.991396 0)
(198.615 -1.91161 0)
(199.927 -0.294673 0)
(194.694 1.99248 0)
(191.194 2.87664 0)
(181.388 4.55618 0)
(170.507 6.70203 0)
(157.468 8.17635 0)
(150.797 8.58237 0)
(131.125 9.6325 0)
(124.814 14.4951 0)
(124.216 18.5908 0)
(77.7924 9.33059 0)
(8.31013 -24.078 0)
(30.0562 -22.4328 0)
(45.7143 -21.0747 0)
(61.43 -19.5725 0)
(76.3395 -17.7589 0)
(89.6415 -16.0814 0)
(101.076 -14.1871 0)
(110.713 -11.9071 0)
(118.039 -9.50583 0)
(120.271 -9.45603 0)
(140.788 -10.5139 0)
(151.975 -10.4936 0)
(160.358 -9.66165 0)
(166.603 -7.98343 0)
(171.408 -6.61544 0)
(174.941 -5.10887 0)
(177.226 -3.5432 0)
(177.02 -2.83934 0)
(166.594 -1.30469 0)
(181.114 -1.33206 0)
(166.985 -0.924841 0)
(186.67 1.83298 0)
(182.058 0.764933 0)
(175.801 -0.246132 0)
(159.661 1.52926 0)
(152.503 2.41362 0)
(168.046 -2.36278 0)
(174.448 -4.58098 0)
(176.868 -1.57441 0)
(175.52 2.0737 0)
(176.51 2.99628 0)
(171.612 2.9024 0)
(165.846 3.29361 0)
(153.929 2.35291 0)
(168.938 2.04007 0)
(172.615 1.1586 0)
(171.333 -2.15966 0)
(174.233 -2.00494 0)
(170.001 1.33908 0)
(165.431 1.12431 0)
(162.128 0.360092 0)
(143.262 0.627298 0)
(165.079 1.2118 0)
(172.075 -2.15522 0)
(171.008 -3.44787 0)
(173.89 -0.597571 0)
(170.001 -1.16049 0)
(156.84 -2.64289 0)
(159.812 -3.98846 0)
(163.85 -1.24128 0)
(173.788 3.43966 0)
(178.493 4.15812 0)
(181.426 1.64321 0)
(179.928 -0.492436 0)
(177.912 1.65404 0)
(171.842 3.76125 0)
(155.075 2.07046 0)
(170.656 -0.503834 0)
(171.349 -0.105648 0)
(168.402 -3.2858 0)
(173.582 -4.77751 0)
(177.546 -2.59694 0)
(173.085 -1.69837 0)
(158.226 1.21366 0)
(170.838 4.1633 0)
(172.553 2.17743 0)
(173.369 -0.813436 0)
(172.308 -1.77152 0)
(172.054 -0.822955 0)
(167.149 -0.225512 0)
(154.112 -1.68808 0)
(165.177 -2.50057 0)
(172.328 -1.61926 0)
(175.898 1.10795 0)
(176.999 1.79907 0)
(177.245 -1.98581 0)
(173.251 -3.51209 0)
(176.007 -3.82525 0)
(175.059 -3.65935 0)
(170.705 -2.45694 0)
(184.369 -2.31951 0)
(185.829 -1.36242 0)
(185.816 -0.263613 0)
(176.815 -0.0276854 0)
(191.753 0.815975 0)
(181.623 2.31721 0)
(191.32 0.481725 0)
(192.085 -1.08607 0)
(187.851 -1.10293 0)
(184.043 0.587616 0)
(177.634 3.34011 0)
(173.457 5.13598 0)
(155.689 6.87426 0)
(153.466 9.10005 0)
(145.606 11.1575 0)
(129.384 12.0005 0)
(112.37 11.9485 0)
(114.126 15.9448 0)
(117.129 23.4758 0)
(79.0009 12.8716 0)
(6.03844 -28.3722 0)
(25.4262 -26.5691 0)
(38.3349 -24.8911 0)
(51.5232 -23.1587 0)
(64.5556 -21.0643 0)
(76.2106 -19.0325 0)
(86.2066 -16.6673 0)
(94.6235 -14.0517 0)
(103.371 -11.3523 0)
(112.583 -12.3763 0)
(125.514 -13.7749 0)
(134.364 -12.6862 0)
(140.924 -11.2826 0)
(146.057 -9.23873 0)
(149.739 -7.55499 0)
(152.327 -5.73691 0)
(154.167 -3.65506 0)
(154.687 -2.07864 0)
(148.953 -1.9412 0)
(161.102 -2.10546 0)
(158.959 -1.44805 0)
(165.113 0.761052 0)
(161.689 1.98655 0)
(156.892 2.19396 0)
(150 3.32403 0)
(146.197 1.27486 0)
(151.098 -3.90344 0)
(154.704 -4.69146 0)
(153.672 -1.15505 0)
(141.789 1.79381 0)
(154.323 2.66518 0)
(154.018 3.85046 0)
(152.841 4.16789 0)
(150.357 1.91386 0)
(155.289 0.994219 0)
(156.258 0.498911 0)
(154.782 -2.32153 0)
(157.388 -1.46794 0)
(156.657 2.04612 0)
(153.621 2.19633 0)
(148.953 2.49583 0)
(136.284 0.158068 0)
(151.152 -1.74119 0)
(157.219 -3.1518 0)
(156.67 -3.11003 0)
(151.929 0.177909 0)
(151.012 0.560891 0)
(135.258 -1.94352 0)
(146.185 -4.84506 0)
(145.859 -2.53916 0)
(155.882 1.70142 0)
(159.825 2.90886 0)
(162.302 1.26565 0)
(161.324 0.171968 0)
(158.158 2.69784 0)
(159.605 5.39263 0)
(153.442 1.90899 0)
(156.663 -1.32964 0)
(157.83 0.106544 0)
(154.049 -2.769 0)
(141.009 -5.34089 0)
(156.459 -2.56487 0)
(152.91 0.123583 0)
(137.009 1.30515 0)
(148.923 2.69736 0)
(153.081 1.65141 0)
(153.959 -0.894813 0)
(152.087 -1.6262 0)
(152.719 -0.290778 0)
(151.203 0.977639 0)
(149.749 -1.40764 0)
(146.871 -3.70797 0)
(155.651 -2.4449 0)
(152.141 0.43846 0)
(158.008 1.51402 0)
(156.347 -1.26566 0)
(149.1 -3.45717 0)
(157.505 -3.58289 0)
(142.883 -3.54366 0)
(158.124 -4.17778 0)
(163.874 -3.51862 0)
(164.847 -1.63316 0)
(166.323 0.0903097 0)
(164.072 -0.402209 0)
(169.676 0.387252 0)
(165.61 1.97705 0)
(168.73 0.0710929 0)
(166.494 -0.398314 0)
(160.788 0.286396 0)
(154.386 2.27877 0)
(143.502 4.6348 0)
(146.799 7.1902 0)
(135.174 9.5592 0)
(117.093 10.9021 0)
(120.692 13.2931 0)
(111.119 15.0299 0)
(97.9768 13.4352 0)
(95.9167 16.3236 0)
(102.642 26.4161 0)
(79.5156 15.1992 0)
(3.45305 -31.7465 0)
(19.6197 -29.9126 0)
(28.9713 -27.9687 0)
(38.7446 -26.0865 0)
(49.2228 -23.8059 0)
(58.5777 -21.4833 0)
(66.5272 -18.7687 0)
(74.4139 -15.9765 0)
(80.0586 -13.8032 0)
(91.8177 -14.9918 0)
(99.5219 -15.95 0)
(107.304 -14.4129 0)
(111.942 -12.5607 0)
(115.865 -10.1878 0)
(118.366 -8.22706 0)
(120.035 -6.21927 0)
(121.636 -3.94079 0)
(123.361 -1.99407 0)
(123.655 -2.65765 0)
(127.956 -2.96569 0)
(127.561 -1.81001 0)
(131.244 0.456684 0)
(129.443 2.75706 0)
(126.446 3.49273 0)
(123.271 4.21437 0)
(121.2 0.941399 0)
(120.631 -4.24567 0)
(122.747 -4.22321 0)
(118.97 -0.764178 0)
(122.324 1.19227 0)
(125.173 1.87208 0)
(126.475 3.89053 0)
(124.863 4.26403 0)
(123.838 1.87134 0)
(126.89 0.80787 0)
(127.65 0.452472 0)
(117.397 -2.55786 0)
(127.132 -1.80091 0)
(129.86 2.07861 0)
(127.656 2.98611 0)
(125.355 3.75467 0)
(121.812 -0.131752 0)
(127.385 -3.38068 0)
(131.599 -3.71483 0)
(130.299 -2.39665 0)
(126.532 1.24838 0)
(124.219 1.89396 0)
(119.994 -1.80251 0)
(119.572 -4.79095 0)
(113.399 -3.62879 0)
(126.938 -0.0552359 0)
(130.287 1.92935 0)
(131.049 1.04568 0)
(129.443 0.475411 0)
(130.045 2.83665 0)
(131.665 5.7326 0)
(128.412 2.10085 0)
(128.7 -1.38156 0)
(130.763 0.284922 0)
(127.996 -1.85227 0)
(124.985 -5.35857 0)
(130.522 -2.90141 0)
(128.886 1.45383 0)
(120.847 1.49975 0)
(125.661 1.8027 0)
(126.667 1.24802 0)
(125.563 -0.762759 0)
(122.84 -1.08419 0)
(115.657 -0.348395 0)
(123.229 0.738058 0)
(123.931 -1.16289 0)
(124.744 -4.15528 0)
(128.088 -3.13142 0)
(130.314 -0.0537979 0)
(130.855 1.45723 0)
(129.364 -0.521647 0)
(127.538 -3.52227 0)
(130.212 -3.24254 0)
(126.494 -3.86346 0)
(130.365 -5.64482 0)
(134.195 -4.12576 0)
(135.303 -1.85098 0)
(135.45 -0.053185 0)
(132.799 -0.460645 0)
(135.88 0.401688 0)
(133.972 1.87308 0)
(133.36 0.422828 0)
(130.381 0.622071 0)
(125.291 1.80347 0)
(118.871 3.93882 0)
(115.595 5.69835 0)
(110.681 8.78877 0)
(101.649 12.1394 0)
(93.7168 12.4893 0)
(89.4956 14.7809 0)
(81.9129 17.2084 0)
(71.2329 14.9527 0)
(68.433 16.3656 0)
(76.5934 26.924 0)
(73.5519 16.0427 0)
(0.811146 -34.0257 0)
(13.2142 -32.2402 0)
(18.5464 -30.1374 0)
(24.4154 -28.2516 0)
(31.7685 -25.9622 0)
(38.2776 -23.4185 0)
(42.9099 -20.582 0)
(50.2676 -17.7363 0)
(55.9262 -15.9679 0)
(63.7004 -17.0656 0)
(68.7313 -17.4588 0)
(73.6019 -15.6348 0)
(75.5306 -13.4446 0)
(78.634 -10.8436 0)
(79.8985 -8.63035 0)
(80.4808 -6.5492 0)
(81.463 -4.31148 0)
(83.1339 -2.44762 0)
(84.2672 -3.09757 0)
(85.4857 -3.37864 0)
(86.0978 -2.12761 0)
(88.3203 0.311299 0)
(87.9674 3.18672 0)
(86.2942 4.15133 0)
(84.2636 4.55338 0)
(81.9574 1.17734 0)
(81.1857 -4.22443 0)
(85.511 -4.21364 0)
(86.1011 -1.05667 0)
(87.7881 0.642826 0)
(88.8026 1.66055 0)
(88.6375 3.98282 0)
(85.4259 4.32817 0)
(84.8623 1.77315 0)
(87.7395 0.733673 0)
(89.2472 0.881891 0)
(84.3165 -2.60982 0)
(88.2541 -2.68652 0)
(92.7003 1.79075 0)
(90.5158 3.4072 0)
(89.6183 4.167 0)
(87.7015 -0.259966 0)
(90.8387 -4.19982 0)
(94.6995 -4.22654 0)
(93.3059 -1.82502 0)
(92.2681 2.27889 0)
(88.0639 2.40516 0)
(86.0865 -1.37591 0)
(83.3103 -4.20286 0)
(83.9854 -4.32776 0)
(90.2673 -1.46671 0)
(92.579 1.4682 0)
(90.8126 1.13893 0)
(88.8964 0.607575 0)
(90.0757 2.71021 0)
(91.2197 5.811 0)
(89.8258 2.24476 0)
(89.6515 -1.39046 0)
(92.1525 0.180579 0)
(90.241 -1.63145 0)
(89.1255 -5.30822 0)
(92.6338 -3.07213 0)
(94.2998 1.87802 0)
(88.6982 1.80929 0)
(90.1488 1.79737 0)
(91.1582 1.32206 0)
(88.6476 -0.318543 0)
(85.5042 -0.0717512 0)
(81.6224 -0.410958 0)
(84.2648 -0.0870943 0)
(84.8471 -1.53495 0)
(87.979 -4.58095 0)
(92.0715 -3.86117 0)
(93.6828 -0.444881 0)
(93.6261 1.72579 0)
(92.7018 -0.190386 0)
(91.5187 -3.64639 0)
(92.074 -3.00114 0)
(89.9573 -3.84914 0)
(89.7338 -6.26136 0)
(93.9626 -4.63295 0)
(95.0956 -2.05696 0)
(95.2321 -0.0638008 0)
(93.7693 -0.203251 0)
(92.8527 0.567697 0)
(91.0972 2.12445 0)
(89.1243 1.16216 0)
(86.5706 1.521 0)
(82.3383 3.00212 0)
(79.1397 5.04015 0)
(75.182 6.84795 0)
(71.5326 10.3057 0)
(65.7377 13.8393 0)
(58.486 14.3302 0)
(54.0746 16.5856 0)
(46.9536 19.0723 0)
(38.8691 16.5732 0)
(34.6337 16.8232 0)
(38.8901 25.6864 0)
(49.2293 14.4483 0)
(-1.70197 -35.2217 0)
(6.59665 -33.5321 0)
(7.74398 -31.2569 0)
(9.70274 -29.3709 0)
(13.4074 -27.0934 0)
(16.7353 -24.4073 0)
(19.3406 -21.6583 0)
(23.5878 -18.9915 0)
(27.4521 -17.3945 0)
(31.6322 -18.2785 0)
(33.8207 -18.3284 0)
(36.1 -16.306 0)
(36.4926 -13.925 0)
(37.158 -11.2185 0)
(36.9143 -8.74991 0)
(36.1354 -6.64787 0)
(36.1275 -4.54747 0)
(37.0953 -2.86564 0)
(37.7445 -3.269 0)
(37.3806 -3.49644 0)
(37.9584 -2.37485 0)
(39.5004 0.0341018 0)
(40.298 3.34791 0)
(39.7693 4.55356 0)
(37.8544 4.87293 0)
(35.6219 1.42507 0)
(34.9928 -4.47625 0)
(39.4496 -4.76992 0)
(41.791 -1.70441 0)
(42.7705 0.31833 0)
(43.7335 1.81315 0)
(42.8473 4.42976 0)
(39.0558 4.61273 0)
(38.4695 1.6589 0)
(41.2637 0.48617 0)
(43.0726 0.881452 0)
(39.6312 -2.53533 0)
(41.4257 -3.36262 0)
(46.6925 1.33099 0)
(45.0015 3.62201 0)
(45.1513 4.27246 0)
(44.0127 -0.325545 0)
(45.8314 -4.78961 0)
(49.1373 -4.74959 0)
(47.612 -1.68481 0)
(48.9109 3.07 0)
(46.2801 2.89804 0)
(42.7091 -0.943572 0)
(40.0326 -3.80603 0)
(40.9819 -4.95002 0)
(44.9329 -2.26714 0)
(47.1972 1.27277 0)
(44.0139 1.6469 0)
(41.2287 0.867384 0)
(41.1958 2.49596 0)
(44.0159 5.80314 0)
(43.5518 2.20873 0)
(43.4568 -1.56234 0)
(45.9579 -0.000570469 0)
(44.6061 -1.68653 0)
(43.7101 -5.43427 0)
(47.0977 -3.51533 0)
(50.1558 1.77536 0)
(45.8419 2.10047 0)
(46.5392 2.10152 0)
(48.4684 1.49262 0)
(45.0453 0.251192 0)
(41.1099 0.900997 0)
(37.2648 -0.180727 0)
(38.0608 -0.578196 0)
(40.3794 -1.99939 0)
(42.6938 -5.25324 0)
(45.795 -4.75702 0)
(48.3871 -0.891861 0)
(48.8692 2.0604 0)
(48.7057 -0.0134415 0)
(46.987 -3.70694 0)
(46.7546 -2.68502 0)
(43.998 -3.54309 0)
(42.1758 -6.48112 0)
(45.9869 -5.27333 0)
(47.728 -2.32304 0)
(47.6118 -0.0367823 0)
(46.0983 0.298062 0)
(44.1586 1.03895 0)
(41.7132 2.5529 0)
(39.5791 1.89513 0)
(37.3696 2.18011 0)
(34.2958 3.79222 0)
(32.4814 5.73222 0)
(29.7029 7.74128 0)
(26.715 11.4025 0)
(23.2537 14.9164 0)
(17.8504 15.6555 0)
(14.4885 17.9472 0)
(10.0792 20.3793 0)
(3.6099 17.8732 0)
(-1.97363 17.2578 0)
(-3.35035 23.6473 0)
(10.8784 12.4916 0)
(-4.06457 -35.2733 0)
(0.0727569 -33.7041 0)
(-2.92623 -31.4568 0)
(-4.8769 -29.7185 0)
(-4.8904 -27.6306 0)
(-4.97009 -24.9694 0)
(-5.00605 -22.2865 0)
(-3.93923 -19.7762 0)
(-2.66552 -18.1949 0)
(-1.85517 -18.6779 0)
(-2.64 -18.4202 0)
(-3.00758 -16.2322 0)
(-4.85537 -13.6982 0)
(-6.45256 -10.9498 0)
(-8.34109 -8.39601 0)
(-10.4709 -6.36809 0)
(-11.6134 -4.5139 0)
(-11.4066 -3.04116 0)
(-11.594 -3.18392 0)
(-12.8153 -3.41572 0)
(-12.5137 -2.51188 0)
(-11.5235 -0.332848 0)
(-10.0427 3.27761 0)
(-9.4842 4.7985 0)
(-11.7609 5.18632 0)
(-13.8141 1.72738 0)
(-15.0784 -4.62174 0)
(-12.0587 -5.35685 0)
(-10.2466 -2.38877 0)
(-8.58706 0.0310641 0)
(-7.16627 1.87226 0)
(-7.63972 4.93315 0)
(-11.1352 4.93217 0)
(-11.6232 1.56958 0)
(-9.39062 0.191465 0)
(-7.79902 0.697852 0)
(-10.2006 -2.31984 0)
(-10.1822 -3.86399 0)
(-5.1673 0.724458 0)
(-5.35446 3.55461 0)
(-4.1382 4.16123 0)
(-4.37803 -0.205164 0)
(-3.9866 -5.08912 0)
(-1.928 -5.09015 0)
(-3.4013 -1.83324 0)
(-0.0731626 3.39679 0)
(-1.01368 3.38477 0)
(-5.39315 -0.318208 0)
(-8.50475 -3.2665 0)
(-8.86153 -5.35493 0)
(-6.16385 -2.81861 0)
(-3.64433 1.216 0)
(-6.45845 2.33548 0)
(-9.43613 1.34238 0)
(-10.7217 2.10729 0)
(-5.52747 5.45202 0)
(-5.01613 2.142 0)
(-6.18329 -1.6932 0)
(-4.61695 -0.128294 0)
(-5.44318 -1.65774 0)
(-6.70096 -5.39997 0)
(-4.6894 -4.05303 0)
(-0.552534 1.40252 0)
(-3.14205 2.18591 0)
(-1.60591 2.24495 0)
(1.63721 1.56432 0)
(-2.19512 1.01795 0)
(-6.89871 1.98442 0)
(-11.0332 0.19119 0)
(-11.1201 -0.933793 0)
(-8.72729 -2.39824 0)
(-7.05159 -5.58991 0)
(-5.85348 -5.5091 0)
(-3.11275 -1.5302 0)
(-0.620853 2.13742 0)
(0.801866 0.148394 0)
(-1.56135 -3.632 0)
(-2.52563 -2.08707 0)
(-5.99719 -2.82507 0)
(-9.38659 -6.40949 0)
(-6.40402 -5.88807 0)
(-4.25486 -2.60841 0)
(-4.36659 0.0406044 0)
(-5.95265 0.880977 0)
(-8.11806 1.63014 0)
(-10.6606 3.03024 0)
(-12.4798 2.54198 0)
(-14.2696 2.62543 0)
(-16.3751 4.22846 0)
(-17.0284 6.11841 0)
(-18.8343 8.33226 0)
(-20.3598 11.9803 0)
(-21.3738 15.5401 0)
(-24.5498 16.66 0)
(-26.0577 18.8973 0)
(-27.995 21.2865 0)
(-31.5797 19.2786 0)
(-36.6983 18.6443 0)
(-41.9195 22.3331 0)
(-26.2138 10.356 0)
(-6.29575 -34.2819 0)
(-6.19427 -32.7981 0)
(-13.117 -30.538 0)
(-18.7013 -28.8814 0)
(-22.4761 -26.9522 0)
(-25.9022 -24.4486 0)
(-28.849 -21.9322 0)
(-30.9316 -19.6381 0)
(-32.5653 -18.161 0)
(-34.8362 -18.3471 0)
(-38.4622 -17.9302 0)
(-41.8767 -15.7332 0)
(-45.9851 -13.1213 0)
(-49.7963 -10.3671 0)
(-53.4086 -7.79407 0)
(-56.7594 -5.87348 0)
(-58.9734 -4.29859 0)
(-59.815 -3.05738 0)
(-60.5723 -3.02226 0)
(-61.865 -3.30513 0)
(-61.6758 -2.6087 0)
(-60.6587 -0.643123 0)
(-59.4769 3.08674 0)
(-57.4971 4.985 0)
(-60.8749 5.53788 0)
(-62.5096 2.02064 0)
(-64.3651 -4.48553 0)
(-63.1406 -5.57114 0)
(-62.7261 -3.02744 0)
(-61.0676 -0.332739 0)
(-59.5316 1.83839 0)
(-59.5908 5.24934 0)
(-61.6457 5.10416 0)
(-61.5311 1.51521 0)
(-59.2285 0.00399364 0)
(-58.1157 0.417458 0)
(-59.7579 -2.00319 0)
(-61.1185 -3.97808 0)
(-57.5933 0.0279706 0)
(-56.025 3.11997 0)
(-53.6126 3.74675 0)
(-52.8158 -0.166043 0)
(-52.9716 -5.06569 0)
(-53.0464 -5.22803 0)
(-54.6415 -2.15606 0)
(-50.4438 3.20774 0)
(-49.0857 3.69585 0)
(-53.8334 0.389586 0)
(-57.3885 -2.52769 0)
(-59.2779 -5.37416 0)
(-58.3321 -3.2465 0)
(-56.0046 0.941401 0)
(-57.3387 2.82988 0)
(-58.9051 1.92922 0)
(-60.8649 1.67568 0)
(-54.8302 4.74864 0)
(-52.2579 1.98219 0)
(-54.4438 -1.54313 0)
(-54.5759 -0.191573 0)
(-55.0824 -1.7462 0)
(-56.3344 -5.15543 0)
(-56.0077 -4.44498 0)
(-52.4294 0.657081 0)
(-52.6652 1.86343 0)
(-49.7026 2.12236 0)
(-45.2887 1.53072 0)
(-49.454 1.93348 0)
(-54.8559 3.19305 0)
(-58.8448 0.637022 0)
(-59.9476 -1.21707 0)
(-57.6102 -2.82186 0)
(-56.1435 -5.63572 0)
(-56.6046 -6.00958 0)
(-54.9118 -2.45149 0)
(-50.6093 1.7041 0)
(-46.9148 0.129907 0)
(-49.897 -3.44801 0)
(-51.6877 -1.4032 0)
(-55.4809 -1.97982 0)
(-59.9395 -6.08742 0)
(-58.6031 -6.35615 0)
(-56.9791 -2.96724 0)
(-56.8649 0.122649 0)
(-58.4736 1.46606 0)
(-60.4187 2.17591 0)
(-62.6296 3.46083 0)
(-63.3725 3.07409 0)
(-64.9039 2.92984 0)
(-66.2383 4.45514 0)
(-65.3052 6.35069 0)
(-67.2142 8.65311 0)
(-66.2295 12.0236 0)
(-64.7764 15.603 0)
(-66.4646 17.0983 0)
(-66.001 19.128 0)
(-65.0445 21.3407 0)
(-65.1717 19.9834 0)
(-67.6769 19.4646 0)
(-72.8576 21.2155 0)
(-54.5519 8.79968 0)
(-8.37741 -32.2758 0)
(-12.0384 -30.9383 0)
(-22.5499 -28.8105 0)
(-31.4392 -27.3191 0)
(-38.6964 -25.6109 0)
(-45.3186 -23.3098 0)
(-51.1682 -20.9356 0)
(-56.229 -18.7754 0)
(-60.765 -17.3257 0)
(-65.8442 -17.1799 0)
(-72.1234 -16.5167 0)
(-78.422 -14.3111 0)
(-84.8895 -11.7186 0)
(-90.839 -9.08151 0)
(-96.1647 -6.66133 0)
(-100.713 -4.98765 0)
(-103.917 -3.75129 0)
(-105.69 -2.78109 0)
(-107.003 -2.72766 0)
(-108.361 -3.12899 0)
(-108.097 -2.8149 0)
(-104.693 -1.0039 0)
(-106.319 2.67607 0)
(-100.316 5.00207 0)
(-106.84 6.27749 0)
(-107.852 2.50206 0)
(-110.896 -4.11822 0)
(-111.528 -5.38533 0)
(-112.478 -3.32609 0)
(-111.287 -0.672313 0)
(-109.75 1.65693 0)
(-109.578 5.32057 0)
(-109.633 5.02489 0)
(-108.923 1.09541 0)
(-104.765 -0.156564 0)
(-106.376 0.438035 0)
(-107.185 -1.68419 0)
(-108.9 -3.95236 0)
(-106.275 -0.611552 0)
(-103.901 2.28399 0)
(-99.9475 3.07698 0)
(-98.2344 -0.263327 0)
(-97.9622 -4.73103 0)
(-100.853 -4.87455 0)
(-102.716 -2.53463 0)
(-98.2285 2.58931 0)
(-92.4641 3.70444 0)
(-99.8676 1.45664 0)
(-104.148 -1.43945 0)
(-107.422 -4.97673 0)
(-108.333 -3.35065 0)
(-106.339 0.566737 0)
(-106.334 2.82444 0)
(-104.815 2.12472 0)
(-105.792 1.0749 0)
(-99.7737 3.60779 0)
(-93.3537 1.787 0)
(-99.2456 -0.877463 0)
(-100.534 0.119858 0)
(-103.06 -1.72788 0)
(-103.126 -4.76356 0)
(-104.34 -4.50233 0)
(-101.587 -0.175926 0)
(-99.2046 0.956847 0)
(-94.2258 1.47159 0)
(-86.4768 1.29445 0)
(-92.1248 3.12157 0)
(-99.9103 4.67428 0)
(-103.57 1.09052 0)
(-104.659 -1.32493 0)
(-103.114 -3.04691 0)
(-101.286 -5.55187 0)
(-102.98 -6.14999 0)
(-102.605 -3.33763 0)
(-97.213 0.685315 0)
(-89.3265 -0.05235 0)
(-94.7923 -2.92854 0)
(-98.2761 -0.433963 0)
(-101.156 -0.874896 0)
(-107.533 -5.34348 0)
(-107.807 -6.45305 0)
(-106.772 -3.22559 0)
(-106.316 0.210412 0)
(-108.374 2.04739 0)
(-109.936 2.61223 0)
(-111.526 3.54136 0)
(-109.567 3.34094 0)
(-111.757 3.22668 0)
(-112.812 4.58423 0)
(-113.149 6.39249 0)
(-113.21 8.55565 0)
(-111.198 11.5873 0)
(-109.248 15.0818 0)