/*--------------------------------*- C++ -*----------------------------------*\
| =========                 |                                                 |
| \\      /  F ield         | foam-extend: Open Source CFD                    |
|  \\    /   O peration     | Version:     5.0                                |
|   \\  /    A nd           | Web:         http://www.foam-extend.org         |
|    \\/     M anipulation  |                                                 |
\*---------------------------------------------------------------------------*/
FoamFile
{
    version     2.0;
    format      ascii;
    class       volScalarField;
    location    "0.05";
    object      alpha1;
}
// * * * * * * * * * * * * * * * * * * * * * * * * * * * * * * * * * * * * * //

dimensions      [0 0 0 0 0 0 0];

internalField   nonuniform List<scalar> 
4000
(
1
0.999996
1
0.970493
0.999997
1
1
0.810966
1
0.714367
0.999838
0.999994
1
1
1
0.988167
0.998424
0.914364
1
0.565101
1
1
1
0.54887
0.999994
1
1
0.261887
1
1
0.809298
0.771065
1
0.859761
0.999996
0.98262
0.940313
0.994369
0.999996
1
1
0.0478531
0.994213
0.987276
0.921572
0.923868
1
1
0.252015
0.999999
1
0.583321
0.842757
0.999998
0.999998
0.996541
1
0.792991
0.5059
1
1
1
0.994817
1
0.254787
1
1
1
0.436879
1
1
1
1
1
1
1
0.990377
0.882734
1
0
1
0.99151
0.985879
1
1
0
1
0.970689
1
0
1
0.998922
0.99264
1
1
1
0
0.979164
1
0.974103
1
1
1
0.699256
0.999992
1
1
0
0.872437
1
0
0.999942
0.948717
0.93549
1
0
0.999104
1
0
0.999988
0.999988
1
0.18068
0
0.984566
0.559455
1
0
0.999516
1
0
0
1
0.792778
0
1
0.843348
0.98937
1
0
0.638966
0
0.99631
0.970317
0.956022
1
1
0
0.481068
0.999997
1
0
1
1
0.999999
1
0.89774
0
0
0.999985
1
0.992049
0.818125
1
0
1
1
1
1
0
1
1
1
1
0
0
1
1
0.526924
0
0
0.989242
0.861348
1
1
0
1
1
0.891713
0
1
0.999908
0.993482
1
0.112861
0.619665
0
0.949723
1
1
1
1
1
0.574011
0.211693
0.999992
0.999993
1
1
0
0.999989
0.999961
0.993546
0.903713
1
0.497521
0
0.999984
0.999986
0.992301
0.999984
1
0.358452
0
0.605316
1
0
0.999333
0.991648
1
0
0.999078
0.716449
1
0
0.982489
0.973426
1
0
1
0
0
0.999996
0.998772
0.969683
1
0.479943
0
0
0.999998
1
0
0.856522
0.992888
0.931027
1
0.325166
0.0915552
0
0
1
0.975143
1
0.288767
0
1
1
1
0
0.931252
0.998534
0.964743
1
0.463408
0
1
0.999203
1
0.475519
0
0.999003
0.943094
1
0
1
0
0.999965
0.998668
1
0
0.999752
0.986768
1
0.0395193
0.138538
0
0.989258
1
0
1
0.999997
0.999994
0.840719
0.54053
1
0
0.999993
0.999994
1
0
0.999991
1
0
1
0
0
0.999988
0.999988
0.999985
1
0.928111
1
0
0.994165
1
0
0
0.990361
1
0.689905
0
0.99895
1
0
0
0.713798
0.993821
0.279138
1
0.0109607
0
0
0.999992
0.996998
1
1
0
0
0.999999
0.875587
1
0
1
0.994137
0.963286
1
0.771931
0
0.999998
1
0
0.906173
1
0.138219
0
1
1
1
1
1
0
1
1
0.185332
0
1
1
0.94219
1
1
0
1
0.489725
1
0
1
1
1
0.895815
1
0
1
0
0
1
1
0.944241
0.502081
1
1
0.999997
0.999995
1
0.692816
0
0
0.999993
0.999993
1
0
1
0
1
0
0
0.999989
0.999989
1
0
0.99999
0.999992
1
0
0.93952
1
0
0.998075
0.999988
1
0
0
0.999989
1
0.998074
0.999114
1
0
0.999996
1
0.0142888
0
0.556439
1
0
0.942272
1
0.645688
0
0.992643
1
0
0
1
1
1
0.733853
0
1
0.854548
0.99995
0.997657
1
0.000902975
0.228893
0
0
1
0.999956
1
0.98908
1
0
1
0.549551
0
1
0.999744
0.341654
0.849209
1
0
1
0
0
1
0.391041
1
1
1
0
1
0
1
0
1
1
0.899972
0.280151
1
0
0.291501
1
1
1
0.850636
0
0
0.999993
0.0152515
0.0410451
0.99999
1
0
0
0.999989
1
1
0.93051
0
0.997148
0.991793
0.999993
1
0.0130878
0
0.999989
0.999989
1
1
0.0247169
0
0
0.925675
0.982599
1
0
0
0.852886
1
0
0
1
0
1
0.454549
0
1
0
0.999876
0.664585
1
1
0
1
1
0
1
0.999741
1
0
1
1
0.140721
0
1
1
0
1
0.999085
0.999888
0.879723
1
0
1
0
0
0.999968
1
0
0.999978
1
1
0
1
1
1
0
0.767349
1
0
1
0.693529
0
1
1
0.996749
0.993964
1
1
0
0
0.206214
0.999993
0.999994
1
1
0
0.999993
1
0
0
1
0
0
0.99999
1
1
0.794481
0
0.999256
0.879437
0.901692
1
0.0344059
0
0.999989
0.999993
1
0.0678906
0
0.408399
1
0
0
0.393991
1
0
0.22529
1
0
0
0.999426
0.999997
1
0
0
0.999998
0.999961
0.999999
0.707821
1
0.617315
1
0
1
0
0.999856
1
1
0
0.999934
1
0
0
1
1
0.482509
0
1
0.991934
0.954898
0.99999
1
0
0.325468
0
0.988935
1
1
0
0.703182
1
0
0.998133
1
1
0
1
0.225182
0.0732874
1
0
1
1
0.999887
1
0
1
1
0.660516
1
0.26373
0.999995
0
0.999996
0.999995
0.999995
0.785538
0.99999
1
0.329543
1
0.586981
0
0.882039
0.99999
1
1
0.693407
0
0.999993
0.999993
0.653971
1
0
0
0.99999
1
0
1
0.914728
1
0.264374
0
0
0
0.999439
0.999996
1
0
0.999199
0.970526
0.999998
1
0.315199
0
0.999998
0.489943
0.999917
1
0
1
1
0
1
0.999992
0.980344
0.461915
1
0
1
0.46217
1
0
1
1
0.389905
0
1
1
1
0
0.999998
1
0
1
0
0.929778
1
0.97325
1
0.0262548
0
0.998723
0.922771
0.199738
0.00409525
1
0
0
0.365626
1
1
0.950232
0.421196
1
0
1
0
1
1
0.471106
0.999996
1
0
0.999992
0.999994
0.99645
0
0.999999
0.999993
0.999993
0.999711
1
0
0
1
0.841292
0
0.999991
0.999993
0.999994
0.999994
1
0
0.999994
1
0
0.998384
0.994919
1
0.399617
0
1
0
0
0.998757
0.956967
1
0.972413
0
0.989615
0.999997
1
0
0
0.999859
1
0
1
0.83887
1
0.354393
0
1
0.971537
1
0.519408
0.336982
0
1
1
1
0
1
1
1
0
1
1
1
0
0
0.999315
1
1
0
0
0.999946
1
0.923655
1
0
0.997754
1
1
1
0.273412
0
0
1
1
0
0.856415
1
0
0
0
1
0
0.999998
0.557527
0
0.999992
1
0
0.999995
0.999993
0.602548
0
0.999993
0.999993
0.100211
0.779331
1
0
0.999992
1
0.644143
1
0.823958
0.99999
1
0
0.999995
0.999993
1
0
0.978712
0.995281
1
0.857226
0
0.311158
1
0
0.999996
0.999997
1
0
0
0.995807
0.914372
1
0.975384
0
0.999997
1
0
0
1
1
0.125086
0
0.999995
1
0.448538
1
0
1
0.363789
0
0
1
0.997841
0.86944
1
0
0
0.999981
1
1
0
0.996704
0.893942
1
0.540399
1
0
0.999858
0.999976
1
0.0704745
0
0.983298
0.971063
1
0.511374
0
0
1
0.151029
1
1
0.056938
0
0.976907
1
0
1
0.999998
1
0
0
0
1
0
0.999994
1
1
0
0.999988
1
0.381165
1
1
0
0.824159
1
0.778849
1
1
0.782952
0.681177
1
0.687663
0.754368
0.99241
0.999973
1
1
0.768621
0.999707
1
1
0.038376
0.993326
0.97776
0.965109
0.999776
0.999994
0.999998
1
1
0
0.999999
0.999999
0.999999
1
0.34564
1
0.386875
0.646584
0.999323
0.993492
1
1
0.115001
0.58045
0.453106
1
0.608872
0.998633
1
0.993645
0.945606
1
0
1
0.533586
0.999995
1
0.841648
0.999771
0.983364
0.904616
1
0
0.712455
1
0.836137
0.694899
1
0
1
0.999953
1
0.988901
0.736545
1
0.999905
0.999915
1
0.34954
0
0.878554
1
0
0
1
0.999998
0.999997
1
1
1
1
1
0.685555
0.999993
1
0.738911
0.999991
0.999991
1
1
1
0.955313
0.998748
0.921255
0.952567
0.395199
0.871522
0.629219
1
1
0.839954
0.972696
0.990001
0.718909
1
0.653165
0.955069
0.70638
1
1
0.997529
0.91778
1
0.989593
0.914614
0.999995
0.999932
1
0.717575
1
0.981951
0.71903
0.999999
0.878985
0.848577
0.999991
0.987697
1
0.846696
0.989196
0.981165
1
1
0.98197
0.999451
0.526658
1
1
1
1
1
1
1
1
1
0.996292
1
1
0.998567
0.99869
1
1
1
0.867495
1
1
0.862432
0.894707
0.97594
1
1
1
1
0.999908
0.98717
0.982705
0.749102
1
1
0
1
0
0
1
1
0.999998
0.999997
0.999997
0.999997
0.999996
0.999994
0.999998
0.999995
0.999995
0.999994
0.999994
0.999986
0.261825
0.62245
0.999993
0.989265
0.433908
0.59563
1
1
0.969813
0.98478
0.982769
0
0.0270303
1
0.808158
0.999501
0.99997
0
1
1
1
0.999995
0.205528
0.795223
1
1
0.0688184
1
0.618785
1
0.999998
0
1
0.79697
1
0.0876073
1
0.111308
1
0.896246
1
0.942156
0.993174
0.991341
0.996645
1
1
0.871584
1
0.821043
0
1
1
0.999974
0.999972
1
1
1
1
1
0
1
1
1
1
0.67945
1
0
1
1
0.99068
0.99946
1
1
1
0.763382
0
1
0.972385
0.866139
0.00346575
0
1
0.320256
1
1
1
1
0.999998
0.999997
0.999998
0.999997
0.999997
0.999996
0.999997
0.999996
0.999996
0.999996
0.999994
0
0
1
1
0.99999
0
0
0.944316
1
0
1
0.984748
0
0
1
0.999995
0
0
0
0.473456
1
0.501035
0.999996
0.868739
0
0.99685
1
0
1
0.881971
0.446968
0
1
0.00627862
0.999915
0
0
1
1
0
1
0
1
1
0.784373
0
1
0.930412
1
0.515795
0
1
0.254127
0.990278
0.999937
0.999976
0
1
1
0.852574
0
1
0.199872
1
0.791414
0
0.591539
0.104127
1
0
0.390992
0.999987
0.999479
1
0.989899
0
0
1
0
1
1
1
1
0
0.295815
0
1
1
1
0.999998
0
0
0
0
0.999998
0.999997
0.999997
0.999996
0.999997
0
0.618436
0.584804
0.958973
1
0.999993
0
1
0
0
0
1
0.999993
0.998678
0
0.232396
0
0
1
0.300999
0
1
1
0.951569
0.994383
0
0
1
0
0
1
0.999929
0
0
1
0.999999
0.999995
0
1
0
1
1
0
0.261778
1
1
0.925709
0
1
0.901425
0
0
0.195182
1
0.891886
0.990448
1
0
0.950145
1
1
0
0.982488
1
1
1
0
1
1
0
0
1
1
0
1
1
0.992153
0
0
0.363069
0.137802
1
1
1
1
0
0
1
1
1
0.999999
0
0.788078
0.773142
1
0.999998
0.999998
0.999997
0.999997
0.999996
0
0.80041
0.816408
0.931207
1
0.999994
0
1
0.999996
0
1
1
0.999996
0.999996
0.999995
0
0.781849
0
1
0
1
0
1
0.999997
0.998995
0.999996
0
1
1
1
0.999998
0.999999
0
0.472706
1
0.999999
0.999999
1
0.533283
0
1
0.944652
0
0.0843709
1
1
1
1
0.656321
0
0
0
1
1
0.822572
0.992696
1
0
0.0461402
1
0.576801
0
0.11743
1
0.999969
0.99996
0
1
0.973413
0
0
0.96275
1
0.722547
0
1
1
0.999987
0
0.807026
0
0.605375
1
1
1
1
1
0
0
1
0
1
0.988539
1
1
0.999998
0.999998
0.999998
0.802125
0.999994
0
1
1
0.99036
1
0.999996
0.999995
0
1
0
0.893949
0
1
1
0.999997
0.999996
0
1
1
0.964366
1
0.725565
0.994779
0
1
0.999998
0
0.304152
1
0.999999
0.999998
0
0
1
0.999999
0
1
1
1
0
1
1
0
1
1
0
1
1
1
0
0.0748576
1
1
0
0
1
1
1
0
1
1
0.635413
0
1
0.999616
0
1
0.789069
1
1
0
1
0.791342
1
1
0
1
0
1
0
0.712833
0
1
1
1
1
1
1
1
1
0
1
1
1
1
0.999999
0.999999
0
1
1
0
1
0.864031
1
1
1
0.999997
0.999996
0
1
0
1
0
1
1
0.999998
0.999998
0.999998
0
1
0
0.390412
0.999998
0
1
0.497156
0.886761
0.999999
0.999999
0.999999
0
1
0.485868
1
0
0.412097
1
1
1
0
1
1
1
1
0
0.708157
1
1
1
0
1
1
1
0
1
1
1
1
0
0
0.912038
1
0.993751
1
0
1
1
0.980483
1
1
0
1
1
1
1
1
1
0
0
0.800597
1
0.631407
0
1
0
1
1
1
1
1
1
1
1
1
0.999999
0.999999
0.999999
0
1
0.826399
0
0
0.806341
1
1
1
0.999998
0.999998
0.999998
0
0.829744
1
1
0
1
1
0.999999
0.999999
0
1
0.215617
1
0.663865
0.999999
0
0.547825
1
1
1
0
1
1
1
1
0
1
1
1
1
1
0
1
1
1
1
0
1
1
1
1
1
1
1
1
0
1
1
1
1
0.524518
0.390301
0.372491
1
1
1
0
1
1
1
1
0
1
0.380095
0.9453
0
1
1
1
1
1
0.844287
1
0
1
1
0.0364047
1
1
1
1
0.686696
0.986344
1
1
1
1
0.999999
0
1
0.648131
1
0.956834
0
1
1
1
0.999999
0.999999
0.999999
0.999999
0
1
0.853529
0
0.958106
1
1
1
0.999998
0
0.990647
1
1
1
1
1
1
1
1
1
1
1
1
1
1
1
1
1
1
1
1
1
1
1
1
1
0.541218
0.616496
1
1
1
1
1
0
0
0
0.430493
1
1
1
1
1
1
1
1
1
1
1
0.767817
1
0.998915
0
1
0.999628
0.997697
0.417029
0
1
0.338893
1
1
1
1
0.556662
1
1
1
1
1
1
1
1
1
1
1
1
1
1
0.827899
0.703985
0.69571
0.576307
0.166955
0
0
0
1
1
1
1
1
0.0762602
0.749045
0.943161
0.108633
0.249556
1
1
1
1
1
1
1
1
1
1
1
1
1
1
1
1
1
1
1
1
1
1
1
1
1
1
0
0
0
1
1
1
1
1
1
1
0
0.604227
1
1
1
1
0
1
1
1
1
1
1
1
1
0
0
1
1
1
0
0
1
1
0
0
0.254276
1
1
1
1
1
1
1
1
1
1
1
0
1
0.984111
1
1
1
1
1
0
1
1
1
1
1
1
1
1
1
1
1
1
1
1
1
1
1
1
1
1
1
1
1
1
1
1
1
1
1
1
1
1
1
1
1
1
1
1
1
1
1
1
1
1
0
0.146031
1
0
1
1
1
0.999999
0.67527
1
1
0
1
1
1
1
0
0.915344
1
1
0.999999
0.999999
0.999999
0.999999
0
0.297208
1
1
1
0.999999
0
1
1
0.999999
0
0.824435
1
1
1
1
1
1
1
1
1
1
1
0.298162
0.51954
1
0.959569
1
1
1
1
1
0
1
1
1
1
1
1
1
1
1
1
1
1
1
1
1
1
1
1
1
1
1
1
1
1
1
1
1
1
1
1
1
1
1
1
1
1
1
1
1
1
1
1
1
0
0.211088
0.895599
1
1
1
1
0
1
0.791738
0.999999
0.999999
1
0.339311
0
0
0
1
1
1
0.229053
0.999999
0.999999
0.999999
0.999991
0
1
1
1
0.127705
0.618266
0.999999
0.999999
0.999999
0
1
1
0
0.999999
0.999999
0.999999
0.999999
1
1
1
1
1
1
0
1
1
1
1
1
1
1
1
0
0
1
1
1
1
1
1
1
1
1
1
1
1
1
1
1
1
1
1
1
1
1
1
1
1
1
1
1
1
1
1
1
1
1
1
1
1
1
1
1
1
1
0
0.192938
0.869033
1
1
1
0.47471
0.889547
1
1
0
1
0
1
1
0.999999
0
1
1
1
1
0.999999
0.999999
0
1
0.655737
0.619296
0.964892
0
1
1
0.999999
0
1
0
1
0.980491
1
0.999999
0.999999
0.999999
0.999999
0.999999
1
1
1
1
1
1
0
1
1
1
1
1
0
1
1
0
0.756703
1
1
1
1
1
1
1
1
1
1
1
1
1
1
1
1
1
1
1
1
1
1
1
1
1
1
1
1
1
1
1
1
1
1
1
1
1
1
1
0.528995
0
0.283843
0.900475
1
1
1
0.336864
0.660207
1
1
1
1
0
1
1
0.999998
0
1
1
1
1
0.999998
0.999999
0.999999
0
0.629179
0
0
1
1
1
0.814322
0
0
1
1
1
1
0.999999
0.999999
0.999999
0.999999
0.999999
1
1
1
1
0.639814
1
0
1
0.923375
0
1
1
0.501163
0
1
1
0
1
1
1
1
1
1
1
1
1
1
1
1
1
1
1
1
1
1
1
1
1
1
1
1
1
1
1
1
1
1
1
1
1
1
1
1
1
1
1
1
0.664156
0.547515
0.584349
0
1
1
0
1
1
1
1
1
0
1
1
1
0
0.831141
1
1
1
0.257576
0.999998
0.999998
0.999998
0.999999
0.999998
0
1
1
1
1
0
0.183907
0.816657
0
1
1
0.999999
0.999999
0.999999
0.999999
0.999999
0.999999
1
1
1
1
1
0.475516
0
1
1
0
1
0.904215
0
0.489019
1
0
0.134183
1
1
1
1
1
1
1
1
1
1
1
1
1
1
1
1
1
1
1
1
1
1
1
1
1
1
1
1
1
1
1
1
1
1
1
1
1
0
1
1
1
0.999999
0.999999
0.891035
0.985614
0
0.547746
0.810068
0
1
0.999998
0
1
1
0.473792
0
0.589467
1
1
1
1
0.62106
0.107644
1
0.999998
0.999998
0
0.636445
1
1
0.821853
0.418617
0.685552
0.281993
0
1
1
0.999999
0.999999
0.999999
0.999999
0.999999
0.999999
1
1
1
1
1
1
0
0.411276
1
1
0
1
1
0
0
1
0
1
1
1
1
1
1
1
1
1
1
1
1
1
1
1
1
1
1
1
1
1
1
1
1
1
1
1
1
1
1
1
1
1
1
1
1
1
0
1
1
1
1
0.999998
0.999998
1
0.922709
0.459278
1
1
0.999998
0.999997
0.999997
0.999998
0
0.446139
1
0
1
1
1
1
0.952046
0.938742
1
0.999996
0.999996
0
0.707219
0.42067
1
1
1
1
1
1
1
0.999998
0.999999
0.999999
0.999999
0.999999
0.999999
0.999999
1
1
1
1
0.601487
1
0.915301
0
0
1
1
0
1
0.474047
1
1
1
0
1
0
1
1
1
1
1
1
1
1
1
1
1
1
1
1
1
1
1
1
1
1
1
1
1
1
1
1
1
1
1
1
1
1
1
1
1
1
0.939674
1
1
0.129305
0.999999
0.999999
0.951321
1
0.168074
0.781077
0.825571
0.832887
0.883812
0.910616
1
1
0.59827
0.999996
1
0.999992
0.999998
1
1
1
0.993089
0.999996
0.999997
0.999996
0.999997
1
1
0.999997
0.999997
0.999997
0.999998
0.999998
0.999998
0.999998
0.999998
0.999999
0.999999
0.999999
0.999999
0.999999
0.999999
1
1
0
0
0
0.710205
1
1
0
0
1
0
0
0.643155
1
0
0
0
1
1
0
1
1
1
1
1
1
1
1
1
1
1
1
1
1
1
1
1
1
1
1
1
1
1
1
1
1
1
1
1
1
1
1
0
0.730256
0.433096
0.928886
0.946222
1
1
1
1
0
0.762816
1
1
0
1
1
0.999999
0.999997
0.999997
0.999996
0.999996
0.502004
0.999997
0.999996
0.999996
0.999996
0.999996
0.999996
0.999996
0.999996
0.999997
0.999997
0.999997
0.999997
0.999997
0.999997
0.999996
0.999997
0.999998
0.999998
0.999998
0.999999
0.999999
0.999999
0.999999
0.999999
0.999999
1
1
1
0
0.0754996
1
0
1
0
1
0
0.152406
0.747542
1
0
1
0.882104
1
0
1
0
1
1
1
1
1
1
1
1
1
1
1
1
1
1
1
1
1
1
1
1
1
1
1
1
1
1
1
1
1
1
1
1
0
0.83186
1
1
1
1
1
0.673702
0.63373
1
1
1
1
0.999998
0.999998
0.999998
1
0
0.999997
0.999997
0.999997
1
0
0.907987
0.984905
0.964159
0.887149
0.747696
0.529501
0.318441
0.278127
0.383627
0.459769
0.399302
0.213896
0
0
0
0.999999
0.999999
0.999998
0.999999
0.999999
0.999999
0.999999
0.999999
0.999999
1
1
1
1
0.968027
0
1
0
1
1
1
1
1
0
0.999035
0.669458
1
0
1
0
1
1
1
1
1
1
1
1
1
1
1
1
1
1
1
1
1
1
1
1
1
1
1
1
1
1
1
1
1
1
1
1
1
0
1
1
0.944076
0.933708
0.866424
0.809452
0.999999
0.999999
0.999999
0.999999
0.999999
0.999998
0.999998
0.999998
0.999998
1
0
0.999997
0.999997
0.999997
1
1
1
1
0.932287
0.868773
0.808494
0.910871
1
1
1
1
1
1
0.996347
0.980674
0.917586
0
0.999998
0.999999
0.999999
0.999999
0.999999
0.999999
0.999999
0.999999
1
1
1
1
1
1
0
1
1
1
0.928092
1
0
1
0.995951
1
1
1
0
1
1
1
1
1
1
1
1
1
1
1
1
1
1
1
1
1
1
1
1
1
1
1
1
1
1
1
1
1
1
1
1
1
1
0
1
1
1
1
1
1
1
0.999999
0.999999
0.999999
0.999999
0.999999
0.999998
0.999998
0.999998
1
0
0.999997
0.999997
0.669941
1
1
1
1
1
0.982622
0.95618
0.966376
1
1
1
1
1
1
1
0.965626
0.950953
0
0.999998
0.999999
0.999999
0.999999
0.999999
0.999999
0.999999
0.999999
1
1
1
1
0
0
1
1
0.998301
0.769555
1
0
0
1
1
0
1
0
1
1
1
1
1
1
1
1
1
1
1
1
1
1
1
1
1
1
1
1
1
1
1
1
1
1
1
1
1
1
1
1
1
1
1
0
1
1
1
1
1
1
1
0.999999
0.999999
0.999999
0.999999
0.999999
0.999998
0.999998
0.999998
1
0
0.999997
0.999997
1
1
1
1
0.996699
0.989224
0.989814
1
0.93197
0.981217
0.99215
0.994759
1
1
0.985674
0.983424
0.978917
0.965831
0.559739
0
0.999999
0.999999
0.999999
0.999999
0.999999
0.999999
0.999999
1
1
0
0.628312
0
1
1
1
0.997159
0.875613
1
0
1
1
1
0
1
0
1
1
1
1
1
1
1
1
1
1
1
1
1
1
1
1
1
1
1
1
1
1
1
1
1
1
1
1
1
1
1
1
1
1
1
0
1
1
1
1
1
1
1
0.999999
0.999999
0.999999
0.999999
0.999999
0.999998
0.999998
0.999998
1
0
0.999997
0.999997
1
1
1
1
1
0.993687
0.981179
0.992533
1
1
1
1
1
1
1
0.998127
0.996752
0.992419
0.89973
0
0.999999
0.999999
0.999999
0.999999
0.999999
0.999999
0.999999
1
1
1
0
0.976183
1
1
1
0
1
0.287565
1
0
1
1
0
1
0
1
1
1
1
1
1
1
1
1
1
1
1
1
1
1
1
1
1
1
1
1
1
1
1
1
1
1
1
1
1
1
1
1
1
1
0
1
1
1
1
1
1
1
0.999999
0.999999
0.999999
0.999999
0.999999
0.999998
0.999998
0.999998
1
0
0.999997
0.999997
1
1
1
1
1
0.993373
0.969991
0.987176
1
1
1
1
1
1
1
1
1
0.998824
0.833978
0
0.999999
0.999999
0.999999
0.999999
0.999999
0.999999
0.999999
1
1
1
0.993695
1
1
0.837321
0
1
0
1
0
0.790811
0.997933
1
0
1
0
1
1
1
1
1
1
1
1
1
1
1
1
1
1
1
1
1
1
1
1
1
1
1
1
1
1
1
1
1
1
1
1
1
1
1
0
0.943251
1
1
1
0
1
1
0.999999
0.999999
0.999999
0.999999
0.999998
0.999998
0.999998
0.999998
1
0
0.999997
0.999997
1
1
1
1
1
0.988852
0.959597
0.973254
1
1
1
1
1
1
1
1
1
0.97277
0.497923
0
0.999998
0.999999
0.999999
0.999999
0.999999
0.999999
0.999999
1
1
1
1
1
0.0502709
1
0
0.977757
1
0.526992
0
0.872246
0.93447
1
0
1
0
1
1
1
1
1
1
1
1
1
1
1
1
1
1
1
1
1
1
1
1
1
1
1
1
1
1
1
1
1
1
1
1
1
1
1
1
0.957125
0
1
1
0
1
0.999999
0.999999
0.999999
0.999999
0.999998
0.999998
0.999998
0.999998
0.999998
1
0
0.999997
0.999997
1
1
1
1
1
1
1
1
0.701024
0.989443
1
1
1
1
1
0.997769
0.753397
0.962527
0.550569
0
0.999998
0.999998
0.999999
0.999999
0.999999
0.999999
0.999999
1
1
1
1
1
1
0.69707
0.999312
0.992145
1
0.74469
0.168828
0.968103
0.970781
1
0
1
0
1
1
1
1
1
1
1
1
1
1
1
1
1
1
1
1
1
1
1
1
1
1
1
1
1
1
1
1
1
1
1
1
1
1
0.200603
1
0
1
1
1
0
0.999999
0.999999
0.999999
0.999999
0.999998
0.999998
0.999998
0.999998
0.999997
0.999997
1
0
0.999997
0.999996
0.978435
1
1
1
1
0.993186
0.920838
0.904963
1
1
1
1
1
1
1
1
1
0.999772
0
0
0.999998
0.999998
0.999998
0.999998
0.999999
0.999999
0.999999
1
1
1
1
0.988704
0.996006
1
1
1
0.9006
0.987434
0.991787
0.997261
1
0.571311
0.886193
1
0.188418
1
1
1
1
1
1
1
1
1
1
1
1
1
1
1
1
1
1
1
1
1
1
1
1
1
1
1
1
1
1
1
1
1
1
0
1
0
0.962883
1
0.990813
0.999999
0.999999
0.999999
0.999999
0.999999
0.999999
0.999999
0.999999
0.999999
0.999998
0.999998
1
0
0.999998
0.999998
1
1
1
1
1
0.943119
0.910085
0.982701
1
1
1
1
1
1
1
1
0.994972
0.875024
0
0.999999
0.999999
0.999999
0.999999
0.999999
0.999999
1
1
1
1
)
;

boundaryField
{
    inlet
    {
        type            zeroGradient;
    }
    outlet
    {
        type            zeroGradient;
    }
    lowerWall
    {
        type            zeroGradient;
    }
    upperWall
    {
        type            zeroGradient;
    }
    frontAndBack
    {
        type            empty;
    }
}


// ************************************************************************* //
