/*--------------------------------*- C++ -*----------------------------------*\
| =========                 |                                                 |
| \\      /  F ield         | foam-extend: Open Source CFD                    |
|  \\    /   O peration     | Version:     5.0                                |
|   \\  /    A nd           | Web:         http://www.foam-extend.org         |
|    \\/     M anipulation  |                                                 |
\*---------------------------------------------------------------------------*/
FoamFile
{
    version     2.0;
    format      ascii;
    class       volVectorField;
    location    "0.05";
    object      bodyForce;
}
// * * * * * * * * * * * * * * * * * * * * * * * * * * * * * * * * * * * * * //

dimensions      [0 1 -2 0 0 0 0];

internalField   nonuniform List<vector> 
4000
(
(1399.84 -0 0)
(3614.86 -0 0)
(5499.59 -0 0)
(7335.62 -0 0)
(8765.72 -0 0)
(9737.4 -0 0)
(10552.3 -0 0)
(11382.5 -0 0)
(12266.9 -0 0)
(12291.4 -0 0)
(14241.5 -0 0)
(16775.2 -0 0)
(18328.9 -0 0)
(18756.3 -0 0)
(16594.1 -0 0)
(15130.4 -0 0)
(13693.5 -0 0)
(10558.8 -0 0)
(10325.4 -0 0)
(9595.61 -0 0)
(10698.5 -0 0)
(12244.1 -0 0)
(14375.3 -0 0)
(14617.1 -0 0)
(15158.8 -0 0)
(13793.7 -0 0)
(9547.25 -0 0)
(9699.29 -0 0)
(13230.8 -0 0)
(13889.1 -0 0)
(12821.7 -0 0)
(11319.3 -0 0)
(12565 -0 0)
(12540.4 -0 0)
(12239.4 -0 0)
(11710.7 -0 0)
(11179.8 -0 0)
(11420.8 -0 0)
(12639.3 -0 0)
(13168.8 -0 0)
(11345.7 -0 0)
(8995.31 -0 0)
(9294.63 -0 0)
(9991.24 -0 0)
(10606.1 -0 0)
(13982 -0 0)
(12583.9 -0 0)
(10137.4 -0 0)
(6322.93 -0 0)
(8639.92 -0 0)
(10018.9 -0 0)
(11508.8 -0 0)
(9573.76 -0 0)
(8189.53 -0 0)
(9150.06 -0 0)
(11452.1 -0 0)
(9283.39 -0 0)
(8584.98 -0 0)
(8945.3 -0 0)
(9318.68 -0 0)
(8365.33 -0 0)
(9508.03 -0 0)
(13913.1 -0 0)
(12560 -0 0)
(10527.1 -0 0)
(8964.27 -0 0)
(10226 -0 0)
(9567.55 -0 0)
(7434.23 -0 0)
(7887.4 -0 0)
(8266.76 -0 0)
(9161.71 -0 0)
(12653.2 -0 0)
(13340 -0 0)
(12865.4 -0 0)
(9942.16 -0 0)
(9211.84 -0 0)
(8784.53 -0 0)
(5863.6 -0 0)
(7838.58 -0 0)
(8182.54 -0 0)
(9855.01 -0 0)
(10373.8 -0 0)
(10262.4 -0 0)
(7187.97 -0 0)
(7897.84 -0 0)
(7151.56 -0 0)
(7539.4 -0 0)
(8378.11 -0 0)
(8179.77 -0 0)
(7426.36 -0 0)
(7132.65 -0 0)
(6420.68 -0 0)
(2473.08 -0 0)
(1075.28 -0 0)
(-593.723 0 0)
(-1407.16 0 0)
(-1767.75 0 0)
(-970.907 0 0)
(-950.012 0 0)
(3408.35 -0 0)
(8564.11 -0 0)
(12943.5 -0 0)
(17049.1 -0 0)
(20419 -0 0)
(22999.5 -0 0)
(25239.5 -0 0)
(27409.5 -0 0)
(29445.9 -0 0)
(27973.4 -0 0)
(32927 -0 0)
(37405.6 -0 0)
(40119.1 -0 0)
(40754 -0 0)
(31568.6 -0 0)
(31357.2 -0 0)
(31615.8 -0 0)
(21493.2 -0 0)
(26970.3 -0 0)
(27198.2 -0 0)
(28797.4 -0 0)
(23788.1 -0 0)
(28840.1 -0 0)
(31960.3 -0 0)
(33681.3 -0 0)
(29429.3 -0 0)
(16447.6 -0 0)
(22567.2 -0 0)
(29132.2 -0 0)
(22798.9 -0 0)
(27128.2 -0 0)
(27350 -0 0)
(28506.3 -0 0)
(26939.8 -0 0)
(27804.3 -0 0)
(27175 -0 0)
(27241.6 -0 0)
(26410.4 -0 0)
(20325.5 -0 0)
(25827.5 -0 0)
(25080 -0 0)
(23035.1 -0 0)
(23469.8 -0 0)
(25844.1 -0 0)
(27569 -0 0)
(29135.7 -0 0)
(17536 -0 0)
(20772.8 -0 0)
(18100.7 -0 0)
(21419.8 -0 0)
(13184.9 -0 0)
(22407.9 -0 0)
(22761.5 -0 0)
(21851.7 -0 0)
(23232 -0 0)
(22171.2 -0 0)
(12063.3 -0 0)
(17827.1 -0 0)
(20865.2 -0 0)
(22185.3 -0 0)
(21678.2 -0 0)
(22009.8 -0 0)
(27332.6 -0 0)
(16597.8 -0 0)
(20982 -0 0)
(21880.5 -0 0)
(24787.1 -0 0)
(20936.4 -0 0)
(14079.9 -0 0)
(19347 -0 0)
(21607.6 -0 0)
(23467.1 -0 0)
(26100.3 -0 0)
(18075.3 -0 0)
(25328.5 -0 0)
(24519.6 -0 0)
(24693.6 -0 0)
(17928.3 -0 0)
(8353 -0 0)
(16835.9 -0 0)
(20225.6 -0 0)
(23526.3 -0 0)
(23484.4 -0 0)
(24128.5 -0 0)
(10572.8 -0 0)
(18313.2 -0 0)
(20207.3 -0 0)
(19837.5 -0 0)
(21410.7 -0 0)
(21778.6 -0 0)
(21213.3 -0 0)
(20316.5 -0 0)
(15722.3 -0 0)
(698.024 -0 0)
(5310.46 -0 0)
(5046.93 -0 0)
(3669.56 -0 0)
(1875.14 -0 0)
(2834.36 -0 0)
(3082.69 -0 0)
(4475.88 -0 0)
(11054 -0 0)
(16595.9 -0 0)
(21712.8 -0 0)
(26033.8 -0 0)
(29502.4 -0 0)
(32579.6 -0 0)
(35418.7 -0 0)
(37902.2 -0 0)
(39517.7 -0 0)
(42451.3 -0 0)
(45652.5 -0 0)
(47218.2 -0 0)
(46074.5 -0 0)
(36812.3 -0 0)
(29485.2 -0 0)
(37956.6 -0 0)
(39362.8 -0 0)
(40439.9 -0 0)
(40009.4 -0 0)
(41364.4 -0 0)
(30398.3 -0 0)
(26023 -0 0)
(35997 -0 0)
(37335.8 -0 0)
(24069.7 -0 0)
(28151.3 -0 0)
(31519.7 -0 0)
(35897.2 -0 0)
(21739.7 -0 0)
(29072.5 -0 0)
(31754.2 -0 0)
(32560.5 -0 0)
(21551.6 -0 0)
(30350.8 -0 0)
(34146 -0 0)
(33263.2 -0 0)
(27604.1 -0 0)
(30665.9 -0 0)
(18413 -0 0)
(24527.8 -0 0)
(26343.1 -0 0)
(28423.7 -0 0)
(31826.4 -0 0)
(34581.2 -0 0)
(27980.7 -0 0)
(14653.8 -0 0)
(21110.9 -0 0)
(21909.4 -0 0)
(26454.5 -0 0)
(13574.5 -0 0)
(23453 -0 0)
(26869.1 -0 0)
(27393.4 -0 0)
(29418.5 -0 0)
(20925.4 -0 0)
(9869.38 -0 0)
(19907.4 -0 0)
(24362.9 -0 0)
(25052 -0 0)
(26469.4 -0 0)
(29258 -0 0)
(23062.6 -0 0)
(12294.8 -0 0)
(20194.4 -0 0)
(25022 -0 0)
(30259.3 -0 0)
(19793.1 -0 0)
(25902.5 -0 0)
(26093.4 -0 0)
(28020.4 -0 0)
(30391.1 -0 0)
(25624.1 -0 0)
(16112.5 -0 0)
(26751.3 -0 0)
(29461.2 -0 0)
(31782 -0 0)
(20758.5 -0 0)
(13400 -0 0)
(20632.3 -0 0)
(25496.7 -0 0)
(31077.2 -0 0)
(20971.4 -0 0)
(26371.6 -0 0)
(14129.2 -0 0)
(24774.8 -0 0)
(28920 -0 0)
(31650.7 -0 0)
(27678.6 -0 0)
(27434.7 -0 0)
(27665.3 -0 0)
(24989.7 -0 0)
(11291 -0 0)
(2076.45 -0 0)
(10137.1 -0 0)
(11917.9 -0 0)
(10751.8 -0 0)
(1981.64 -0 0)
(5283.36 -0 0)
(1395.94 -0 0)
(4635.73 -0 0)
(11796.8 -0 0)
(17737.1 -0 0)
(23240.8 -0 0)
(27999.2 -0 0)
(31917 -0 0)
(35457.2 -0 0)
(38650.5 -0 0)
(41472.3 -0 0)
(44233.1 -0 0)
(46104.4 -0 0)
(44961.9 -0 0)
(47343 -0 0)
(36632.1 -0 0)
(44611.7 -0 0)
(46318.8 -0 0)
(48178.7 -0 0)
(49991.7 -0 0)
(50542.8 -0 0)
(48996.8 -0 0)
(50736.9 -0 0)
(33805 -0 0)
(41290.9 -0 0)
(45999.8 -0 0)
(29572.5 -0 0)
(33396.5 -0 0)
(36578.7 -0 0)
(39249.4 -0 0)
(34526.5 -0 0)
(19501.2 -0 0)
(28151 -0 0)
(33176.9 -0 0)
(23234.5 -0 0)
(30940.7 -0 0)
(36443.2 -0 0)
(36050.4 -0 0)
(28277.4 -0 0)
(32989.7 -0 0)
(21659.1 -0 0)
(12594.8 -0 0)
(22141.2 -0 0)
(26474 -0 0)
(27506.4 -0 0)
(32053.5 -0 0)
(35052.9 -0 0)
(20516.5 -0 0)
(9518.35 -0 0)
(19539.4 -0 0)
(23018.1 -0 0)
(26217.1 -0 0)
(12248.1 -0 0)
(23296.1 -0 0)
(28890.7 -0 0)
(31047.4 -0 0)
(29284.2 -0 0)
(15346.5 -0 0)
(8837.77 -0 0)
(22227.6 -0 0)
(29157.9 -0 0)
(18058 -0 0)
(25644.7 -0 0)
(28879.4 -0 0)
(18131.6 -0 0)
(7577.15 -0 0)
(17462.9 -0 0)
(24681.1 -0 0)
(32002.4 -0 0)
(33264.6 -0 0)
(34882.8 -0 0)
(21949.4 -0 0)
(28276 -0 0)
(32037.3 -0 0)
(23326.5 -0 0)
(14355.8 -0 0)
(26214.3 -0 0)
(31094.1 -0 0)
(35149.7 -0 0)
(36073.5 -0 0)
(36437.5 -0 0)
(19310.3 -0 0)
(28654.3 -0 0)
(32712.8 -0 0)
(34589 -0 0)
(21590.5 -0 0)
(28555.9 -0 0)
(34355 -0 0)
(36693.6 -0 0)
(38573.2 -0 0)
(37076.1 -0 0)
(21249 -0 0)
(24998.9 -0 0)
(12698.6 -0 0)
(19384.8 -0 0)
(20635.2 -0 0)
(20460.4 -0 0)
(19326.9 -0 0)
(15230.6 -0 0)
(11501.8 -0 0)
(6038.73 -0 0)
(5970.4 -0 0)
(4008.95 -0 0)
(11250.3 -0 0)
(17084 -0 0)
(22481.7 -0 0)
(27296.8 -0 0)
(31357.9 -0 0)
(35145.4 -0 0)
(38526 -0 0)
(41950.8 -0 0)
(44725.3 -0 0)
(43200.4 -0 0)
(45247.6 -0 0)
(35193.8 -0 0)
(43257.2 -0 0)
(49463.4 -0 0)
(52827.5 -0 0)
(54492.7 -0 0)
(55939.9 -0 0)
(56809.5 -0 0)
(56485.3 -0 0)
(56910.6 -0 0)
(40203 -0 0)
(46306.6 -0 0)
(48541.8 -0 0)
(31422 -0 0)
(37645.7 -0 0)
(41820 -0 0)
(43239.7 -0 0)
(26897 -0 0)
(14678.9 -0 0)
(25992.5 -0 0)
(32747.6 -0 0)
(35064 -0 0)
(39455.2 -0 0)
(38817.6 -0 0)
(24809 -0 0)
(30629.5 -0 0)
(34863.4 -0 0)
(20217.6 -0 0)
(13439.3 -0 0)
(23799.6 -0 0)
(26128.8 -0 0)
(15355.9 -0 0)
(24170.7 -0 0)
(27731.8 -0 0)
(15818.2 -0 0)
(7051.25 -0 0)
(19555.5 -0 0)
(24143.7 -0 0)
(14865 -0 0)
(7877.02 -0 0)
(19312.3 -0 0)
(26744.3 -0 0)
(30213.7 -0 0)
(17568.6 -0 0)
(11976.9 -0 0)
(23384 -0 0)
(30915.4 -0 0)
(32307.6 -0 0)
(32363.8 -0 0)
(33271.6 -0 0)
(17906.1 -0 0)
(9850.82 -0 0)
(4879.92 -0 0)
(17100.9 -0 0)
(22401.5 -0 0)
(30648.2 -0 0)
(34707.5 -0 0)
(36585.1 -0 0)
(35640.3 -0 0)
(23613.5 -0 0)
(30337.3 -0 0)
(27585.5 -0 0)
(15775.3 -0 0)
(26365.1 -0 0)
(32207.8 -0 0)
(36369.9 -0 0)
(37188 -0 0)
(42209.2 -0 0)
(24870.2 -0 0)
(33845.3 -0 0)
(21292.4 -0 0)
(31443.3 -0 0)
(34512.2 -0 0)
(38454.1 -0 0)
(38220.3 -0 0)
(40406.4 -0 0)
(41949.7 -0 0)
(27447.4 -0 0)
(30601.5 -0 0)
(14243 -0 0)
(17953.1 -0 0)
(22353.8 -0 0)
(26382.4 -0 0)
(25822.8 -0 0)
(21888.8 -0 0)
(11529 -0 0)
(13237.6 -0 0)
(-1929.02 0 0)
(4085.14 -0 0)
(2882.24 -0 0)
(9755.85 -0 0)
(15081.3 -0 0)
(19823.8 -0 0)
(24380.6 -0 0)
(28377.2 -0 0)
(32289.7 -0 0)
(35855.6 -0 0)
(39057.2 -0 0)
(42669.2 -0 0)
(45734 -0 0)
(31355.3 -0 0)
(39023.3 -0 0)
(45059.6 -0 0)
(50314.6 -0 0)
(53826.8 -0 0)
(55706.2 -0 0)
(57022 -0 0)
(58300.1 -0 0)
(58273.6 -0 0)
(58489.6 -0 0)
(56744.3 -0 0)
(41027.9 -0 0)
(37450.3 -0 0)
(40520.1 -0 0)
(43730 -0 0)
(45269.2 -0 0)
(41857.1 -0 0)
(23906.1 -0 0)
(14478.6 -0 0)
(26119.3 -0 0)
(30016.7 -0 0)
(36243.9 -0 0)
(39789.9 -0 0)
(26965.5 -0 0)
(29576.9 -0 0)
(28537.3 -0 0)
(33405.6 -0 0)
(18524.1 -0 0)
(27774.9 -0 0)
(30576.6 -0 0)
(18720.7 -0 0)
(25293.8 -0 0)
(13769 -0 0)
(7152.87 -0 0)
(19559.8 -0 0)
(14071.5 -0 0)
(23889.9 -0 0)
(24417.1 -0 0)
(28561.2 -0 0)
(15554.1 -0 0)
(10483 -0 0)
(20191.1 -0 0)
(25763.2 -0 0)
(22379.1 -0 0)
(28217.6 -0 0)
(34698.6 -0 0)
(38843.5 -0 0)
(22902 -0 0)
(31093.1 -0 0)
(33398.9 -0 0)
(18209.3 -0 0)
(8407.09 -0 0)
(18830.3 -0 0)
(24230.7 -0 0)
(13122.2 -0 0)
(23322.3 -0 0)
(30489.8 -0 0)
(33770.1 -0 0)
(35180 -0 0)
(36429 -0 0)
(24732.8 -0 0)
(31606 -0 0)
(17674.9 -0 0)
(25806.4 -0 0)
(30726.6 -0 0)
(34741.8 -0 0)
(37866 -0 0)
(42481.7 -0 0)
(40922.5 -0 0)
(41673.3 -0 0)
(22811.4 -0 0)
(31613.7 -0 0)
(36842.9 -0 0)
(41081.5 -0 0)
(25154 -0 0)
(34540.5 -0 0)
(36520.1 -0 0)
(31395.7 -0 0)
(31617.3 -0 0)
(13472.2 -0 0)
(6426.26 -0 0)
(18512.3 -0 0)
(24575.5 -0 0)
(26483.1 -0 0)
(23048.9 -0 0)
(17945.4 -0 0)
(14936.8 -0 0)
(-5002.55 0 0)
(530.971 -0 0)
(1598.49 -0 0)
(7681.88 -0 0)
(12205.5 -0 0)
(15679.3 -0 0)
(19857 -0 0)
(23759.5 -0 0)
(27717.3 -0 0)
(31066.9 -0 0)
(34124.7 -0 0)
(37201.9 -0 0)
(40691.2 -0 0)
(25650.1 -0 0)
(34847 -0 0)
(41225.8 -0 0)
(46702.6 -0 0)
(50484.7 -0 0)
(52645.8 -0 0)
(53902.8 -0 0)
(55866.5 -0 0)
(54323.2 -0 0)
(53877.5 -0 0)
(56533.6 -0 0)
(41225.6 -0 0)
(30003.8 -0 0)
(39498.2 -0 0)
(43519.5 -0 0)
(44523.7 -0 0)
(27962.7 -0 0)
(19054.2 -0 0)
(27367.2 -0 0)
(32442.1 -0 0)
(19181.1 -0 0)
(27959.3 -0 0)
(31479.7 -0 0)
(33786 -0 0)
(21583.8 -0 0)
(17792.1 -0 0)
(28796.4 -0 0)
(16818.6 -0 0)
(29033.6 -0 0)
(31965.1 -0 0)
(31297.6 -0 0)
(33608.9 -0 0)
(16034.6 -0 0)
(6120.29 -0 0)
(20340 -0 0)
(26746.1 -0 0)
(31945.7 -0 0)
(32652.8 -0 0)
(32630.1 -0 0)
(27719.9 -0 0)
(20987.1 -0 0)
(10087 -0 0)
(20462.7 -0 0)
(26405.5 -0 0)
(32885.7 -0 0)
(38925.3 -0 0)
(41801 -0 0)
(22558.7 -0 0)
(29426.4 -0 0)
(31651.6 -0 0)
(17821 -0 0)
(8867.73 -0 0)
(22827.5 -0 0)
(28180.5 -0 0)
(20770.4 -0 0)
(11500 -0 0)
(23399.3 -0 0)
(28950.7 -0 0)
(33195.3 -0 0)
(37106.4 -0 0)
(36694 -0 0)
(24528.8 -0 0)
(19060.7 -0 0)
(14485.5 -0 0)
(23193.8 -0 0)
(29783.6 -0 0)
(34604.7 -0 0)
(38506.6 -0 0)
(36998.9 -0 0)
(37924.5 -0 0)
(20212.2 -0 0)
(29659 -0 0)
(34918.1 -0 0)
(39520.4 -0 0)
(23026.6 -0 0)
(31463.9 -0 0)
(19104.2 -0 0)
(8729.65 -0 0)
(19088.3 -0 0)
(18423.6 -0 0)
(19877.1 -0 0)
(23426.8 -0 0)
(23909.5 -0 0)
(23864 -0 0)
(17678.3 -0 0)
(16320.5 -0 0)
(11422.1 -0 0)
(-6632.28 0 0)
(-5649.97 0 0)
(384.787 -0 0)
(5358.86 -0 0)
(8921.57 -0 0)
(10377.4 -0 0)
(14327.1 -0 0)
(18240.7 -0 0)
(22072.3 -0 0)
(24222.3 -0 0)
(28233 -0 0)
(28764.2 -0 0)
(33089.3 -0 0)
(23010.6 -0 0)
(27129.7 -0 0)
(33976.8 -0 0)
(40019.6 -0 0)
(44315.6 -0 0)
(46878 -0 0)
(48453.7 -0 0)
(50206.9 -0 0)
(49891 -0 0)
(49995.4 -0 0)
(52070 -0 0)
(51370.2 -0 0)
(32917 -0 0)
(39608.9 -0 0)
(41570.7 -0 0)
(41693.9 -0 0)
(25331.9 -0 0)
(30605.9 -0 0)
(34006.9 -0 0)
(35307.7 -0 0)
(19440.4 -0 0)
(14731.5 -0 0)
(24492.3 -0 0)
(28890.7 -0 0)
(30709 -0 0)
(29701.7 -0 0)
(32494.2 -0 0)
(19074.2 -0 0)
(27567.4 -0 0)
(30266.9 -0 0)
(32228.6 -0 0)
(34311.2 -0 0)
(20540.7 -0 0)
(10610 -0 0)
(23436.1 -0 0)
(30647.7 -0 0)
(34358.3 -0 0)
(33988.9 -0 0)
(21908.8 -0 0)
(30437 -0 0)
(30523.3 -0 0)
(12657 -0 0)
(20380 -0 0)
(26545.3 -0 0)
(33143.9 -0 0)
(37100.4 -0 0)
(37367.4 -0 0)
(20383.6 -0 0)
(26468.6 -0 0)
(28762.3 -0 0)
(29484.8 -0 0)
(14955.3 -0 0)
(26470.4 -0 0)
(30675.9 -0 0)
(23566.4 -0 0)
(11444 -0 0)
(21782.3 -0 0)
(26238.5 -0 0)
(30554.7 -0 0)
(30736.9 -0 0)
(32553.5 -0 0)
(32787.1 -0 0)
(20803.1 -0 0)
(27501.9 -0 0)
(14451.8 -0 0)
(23666.9 -0 0)
(29560.6 -0 0)
(32960.5 -0 0)
(34915.4 -0 0)
(23224 -0 0)
(13492.5 -0 0)
(26036.3 -0 0)
(30626.5 -0 0)
(35710.7 -0 0)
(27068.6 -0 0)
(29545.8 -0 0)
(12004.9 -0 0)
(2842.4 -0 0)
(13345 -0 0)
(19294 -0 0)
(20492.4 -0 0)
(20689.8 -0 0)
(15816.8 -0 0)
(16968.9 -0 0)
(8427.87 -0 0)
(10007.5 -0 0)
(-1859.06 0 0)
(-6353.73 0 0)
(-15691.3 0 0)
(-679.16 0 0)
(3042.61 -0 0)
(5543.5 -0 0)
(3969.38 -0 0)
(8239.76 -0 0)
(12428.7 -0 0)
(15845.1 -0 0)
(14679.5 -0 0)
(20766.8 -0 0)
(22402.9 -0 0)
(25687.7 -0 0)
(27421.2 -0 0)
(30553.2 -0 0)
(23740.1 -0 0)
(31275.7 -0 0)
(36671 -0 0)
(39432 -0 0)
(40902.9 -0 0)
(41884.4 -0 0)
(41202.7 -0 0)
(41383.1 -0 0)
(43653.5 -0 0)
(44906.6 -0 0)
(30950.9 -0 0)
(37008.9 -0 0)
(37577 -0 0)
(36220.8 -0 0)
(32313.2 -0 0)
(33669.1 -0 0)
(35564.3 -0 0)
(28699.1 -0 0)
(15760.3 -0 0)
(21895.5 -0 0)
(15030.6 -0 0)
(22044.3 -0 0)
(27469.1 -0 0)
(28014 -0 0)
(30205.2 -0 0)
(24378.6 -0 0)
(17806.3 -0 0)
(25953 -0 0)
(28546.6 -0 0)
(29852.5 -0 0)
(16359.8 -0 0)
(22441.9 -0 0)
(28146.4 -0 0)
(32457.1 -0 0)
(32706.9 -0 0)
(30978.3 -0 0)
(26433.1 -0 0)
(30402.8 -0 0)
(23122.8 -0 0)
(12189.9 -0 0)
(19795.3 -0 0)
(24994.4 -0 0)
(29769.4 -0 0)
(27889.4 -0 0)
(19980 -0 0)
(20357.4 -0 0)
(22807.8 -0 0)
(23644.5 -0 0)
(27090.7 -0 0)
(19906.9 -0 0)
(28303.4 -0 0)
(30654.1 -0 0)
(31060.3 -0 0)
(14827.6 -0 0)
(21773.6 -0 0)
(23533.3 -0 0)
(26347.3 -0 0)
(16738.2 -0 0)
(19432 -0 0)
(26349.2 -0 0)
(28906.5 -0 0)
(32173.7 -0 0)
(16054.5 -0 0)
(21938 -0 0)
(25650.4 -0 0)
(27882.3 -0 0)
(28679.2 -0 0)
(27658.7 -0 0)
(14962.3 -0 0)
(25322.5 -0 0)
(28785.7 -0 0)
(31471 -0 0)
(25112 -0 0)
(16868.2 -0 0)
(7544.67 -0 0)
(11520.6 -0 0)
(14255.7 -0 0)
(17092.9 -0 0)
(10024.6 -0 0)
(16092.6 -0 0)
(14354.5 -0 0)
(3653.45 -0 0)
(1530.38 -0 0)
(2930.87 -0 0)
(-7120.3 0 0)
(-15318.1 0 0)
(-18342.6 0 0)
(-1603.52 0 0)
(876.249 -0 0)
(2296.67 -0 0)
(3004.51 -0 0)
(1928.21 -0 0)
(6759.34 -0 0)
(9391.47 -0 0)
(10803.5 -0 0)
(13361.1 -0 0)
(14396.2 -0 0)
(17241 -0 0)
(21702.9 -0 0)
(25068.3 -0 0)
(26672.9 -0 0)
(21376.4 -0 0)
(29221 -0 0)
(31328.9 -0 0)
(31834.1 -0 0)
(31527 -0 0)
(29244.2 -0 0)
(29984.9 -0 0)
(32732.4 -0 0)
(27500.4 -0 0)
(32278.5 -0 0)
(33378.3 -0 0)
(31310 -0 0)
(27411.3 -0 0)
(25892.7 -0 0)
(27719.4 -0 0)
(29994.3 -0 0)
(27250.6 -0 0)
(18447.1 -0 0)
(22782.4 -0 0)
(21574.1 -0 0)
(17220.9 -0 0)
(22603 -0 0)
(22382.1 -0 0)
(23396.4 -0 0)
(15972.5 -0 0)
(21917.9 -0 0)
(24004.8 -0 0)
(22928.4 -0 0)
(22107.9 -0 0)
(20145.2 -0 0)
(23547.9 -0 0)
(27112.4 -0 0)
(29509.9 -0 0)
(24869.4 -0 0)
(23817.9 -0 0)
(21955 -0 0)
(24728.5 -0 0)
(16097.4 -0 0)
(19153.1 -0 0)
(19572.7 -0 0)
(21636.4 -0 0)
(21760.7 -0 0)
(24925.3 -0 0)
(20356.6 -0 0)
(22413.5 -0 0)
(11714 -0 0)
(15789.2 -0 0)
(20136.2 -0 0)
(23390 -0 0)
(26974.9 -0 0)
(27222.3 -0 0)
(28361.8 -0 0)
(15251.4 -0 0)
(19744 -0 0)
(18407.6 -0 0)
(19121.8 -0 0)
(18218.5 -0 0)
(8912.85 -0 0)
(18072.7 -0 0)
(23802.4 -0 0)
(28279.8 -0 0)
(19272.9 -0 0)
(15870 -0 0)
(19726.1 -0 0)
(20635 -0 0)
(19700.1 -0 0)
(20696.2 -0 0)
(19331.4 -0 0)
(24072.3 -0 0)
(24362.2 -0 0)
(24423 -0 0)
(23139.4 -0 0)
(13083.7 -0 0)
(7682.17 -0 0)
(10956.1 -0 0)
(11105.1 -0 0)
(11977.1 -0 0)
(10221 -0 0)
(11248.2 -0 0)
(5624.97 -0 0)
(-2983.04 0 0)
(-2935.56 0 0)
(-4037.05 0 0)
(-14156.5 0 0)
(-17272.9 0 0)
(-24917.4 0 0)
(-2435.35 0 0)
(-1158.74 0 0)
(-929.767 0 0)
(-540.97 0 0)
(-282.107 0 0)
(1189.79 -0 0)
(2440.37 -0 0)
(3873.76 -0 0)
(5157.32 -0 0)
(5779.58 -0 0)
(8538.77 -0 0)
(13778.5 -0 0)
(15808.9 -0 0)
(21248.7 -0 0)
(21306.9 -0 0)
(23019.1 -0 0)
(22369.6 -0 0)
(21278.5 -0 0)
(19322.6 -0 0)
(19224.1 -0 0)
(17910.4 -0 0)
(20754.9 -0 0)
(22040.3 -0 0)
(26033.2 -0 0)
(25471 -0 0)
(21601.8 -0 0)
(15022.4 -0 0)
(15155.4 -0 0)
(17589.3 -0 0)
(20683 -0 0)
(20593.7 -0 0)
(17424.5 -0 0)
(18108.4 -0 0)
(16431.4 -0 0)
(14000.8 -0 0)
(16005.5 -0 0)
(13530 -0 0)
(13545.1 -0 0)
(16063.8 -0 0)
(19355.3 -0 0)
(18529.3 -0 0)
(15755.9 -0 0)
(10776.5 -0 0)
(12384.5 -0 0)
(17207.6 -0 0)
(21315.1 -0 0)
(22527.6 -0 0)
(18609.3 -0 0)
(14830.5 -0 0)
(12626.4 -0 0)
(16147.5 -0 0)
(16716.8 -0 0)
(16567.1 -0 0)
(13638.5 -0 0)
(14328.1 -0 0)
(16619.1 -0 0)
(16619.5 -0 0)
(13807.7 -0 0)
(16257.3 -0 0)
(11063.5 -0 0)
(8907.87 -0 0)
(11776.1 -0 0)
(18059.8 -0 0)
(20481 -0 0)
(19548.7 -0 0)
(20498.1 -0 0)
(17109 -0 0)
(14474.4 -0 0)
(9450.18 -0 0)
(8813.21 -0 0)
(10274.5 -0 0)
(7521.24 -0 0)
(11137.8 -0 0)
(16554.7 -0 0)
(20212.4 -0 0)
(18197.1 -0 0)
(13686.6 -0 0)
(12975.9 -0 0)
(11617.6 -0 0)
(8802.47 -0 0)
(9784.39 -0 0)
(13266 -0 0)
(16828.8 -0 0)
(15368.4 -0 0)
(13677.1 -0 0)
(13477.8 -0 0)
(9754.57 -0 0)
(6148.73 -0 0)
(5812.67 -0 0)
(4253.17 -0 0)
(3809.08 -0 0)
(3724.57 -0 0)
(2467 -0 0)
(-452.621 0 0)
(-5351.16 0 0)
(-7261.68 0 0)
(-11295.9 0 0)
(-17969.7 0 0)
(-21132.8 0 0)
(-31803.6 0 0)
(-3254.62 0 0)
(-3205.93 0 0)
(-4296.47 0 0)
(-4970.94 0 0)
(-5202.15 0 0)
(-5378.87 0 0)
(-5358.96 0 0)
(-4851.76 0 0)
(-4595.39 0 0)
(-4383.01 0 0)
(-1798.75 0 0)
(3313.89 -0 0)
(7127.72 -0 0)
(11145.1 -0 0)
(12314.3 -0 0)
(12272.9 -0 0)
(10242.6 -0 0)
(8443.35 -0 0)
(7627.84 -0 0)
(7948.25 -0 0)
(4674.52 -0 0)
(7413.69 -0 0)
(11229.1 -0 0)
(15311.7 -0 0)
(13276.2 -0 0)
(9075.21 -0 0)
(1715.75 -0 0)
(2464.75 -0 0)
(4422.54 -0 0)
(7711.17 -0 0)
(8787.01 -0 0)
(7960.12 -0 0)
(6985.7 -0 0)
(4932.6 -0 0)
(3751.59 -0 0)
(4154.07 -0 0)
(753.474 -0 0)
(815.255 -0 0)
(6756.05 -0 0)
(9852.73 -0 0)
(7286.24 -0 0)
(3758.23 -0 0)
(-620.676 0 0)
(2319.43 -0 0)
(6172.42 -0 0)
(10585.5 -0 0)
(10913.2 -0 0)
(6835.73 -0 0)
(4973.96 -0 0)
(1204.72 -0 0)
(5965.6 -0 0)
(8442.67 -0 0)
(6848 -0 0)
(2888.83 -0 0)
(2768.07 -0 0)
(6105.79 -0 0)
(5527.31 -0 0)
(3125.41 -0 0)
(4564.62 -0 0)
(637.708 -0 0)
(-1548.29 0 0)
(1080.78 -0 0)
(8405.18 -0 0)
(9038.35 -0 0)
(8266.84 -0 0)
(9077.29 -0 0)
(7557.45 -0 0)
(3271.85 -0 0)
(-2943.73 0 0)
(-3504.09 0 0)
(-1507.76 0 0)
(-1420.07 0 0)
(977.629 -0 0)
(4691.29 -0 0)
(8938.17 -0 0)
(6891.9 -0 0)
(2274.86 -0 0)
(1664.79 -0 0)
(-0.504606 0 0)
(-2922.94 0 0)
(-2572.98 0 0)
(1183.76 -0 0)
(4348.68 -0 0)
(1842.01 -0 0)
(-405.633 0 0)
(-66.2787 0 0)
(-1020.08 0 0)
(-2269.41 0 0)
(-2923.21 0 0)
(-4650.8 0 0)
(-6286.85 0 0)
(-5464.6 0 0)
(-6054.44 0 0)
(-6322.66 0 0)
(-9553.57 0 0)
(-11185.4 0 0)
(-17439.1 0 0)
(-22094.9 0 0)
(-24356.6 0 0)
(-29335.4 0 0)
(-4096.54 0 0)
(-5280.87 0 0)
(-7670.63 0 0)
(-9513.72 0 0)
(-10739.7 0 0)
(-12121.3 0 0)
(-13173.1 0 0)
(-13700.4 0 0)
(-14187.1 0 0)
(-14086.1 0 0)
(-11639.2 0 0)
(-7213.15 0 0)
(-3295.89 0 0)
(-190.171 0 0)
(1121.35 -0 0)
(639.344 -0 0)
(-1331.88 0 0)
(-2534.33 0 0)
(-1698.33 0 0)
(248.43 -0 0)
(-6887.13 0 0)
(-3483.15 0 0)
(-2116.97 0 0)
(1663.01 -0 0)
(496.887 -0 0)
(1033.84 -0 0)
(-10221.1 0 0)
(-8049.51 0 0)
(-7455.41 0 0)
(-4959.88 0 0)
(-2859.42 0 0)
(-2191.51 0 0)
(-6173.37 0 0)
(-8811.64 0 0)
(-9129.67 0 0)
(-8870.8 0 0)
(-10930.4 0 0)
(-9943.88 0 0)
(-5085.06 0 0)
(-1741.75 0 0)
(-5604.39 0 0)
(-7116.57 0 0)
(-10235.3 0 0)
(-5950.16 0 0)
(-4900.06 0 0)
(-2322.91 0 0)
(-1908.9 0 0)
(-3692.68 0 0)
(-108.016 0 0)
(-8160.56 0 0)
(-566.163 0 0)
(-589.749 0 0)
(-3580.36 0 0)
(-5926.29 0 0)
(-9066.86 0 0)
(-6739.22 0 0)
(-6970.87 0 0)
(-8482.84 0 0)
(-7844.46 0 0)
(-10297.8 0 0)
(-10047.6 0 0)
(-7392.11 0 0)
(-920.113 0 0)
(-3014.21 0 0)
(-3870.1 0 0)
(-3824.67 0 0)
(-4425.02 0 0)
(-7993.91 0 0)
(-12522.7 0 0)
(-12773.6 0 0)
(-12283 0 0)
(-10370.9 0 0)
(-7433.62 0 0)
(-7439.1 0 0)
(-4899.83 0 0)
(-7159.55 0 0)
(-9706.03 0 0)
(-9912.59 0 0)
(-10414.1 0 0)
(-11050.3 0 0)
(-11657.6 0 0)
(-11108.3 0 0)
(-10291.3 0 0)
(-12054.9 0 0)
(-13983.6 0 0)
(-13787.6 0 0)
(-12627.3 0 0)
(-11613.3 0 0)
(-10429.4 0 0)
(-11178.6 0 0)
(-15664.6 0 0)
(-15670.7 0 0)
(-16091.6 0 0)
(-14779.4 0 0)
(-11072.3 0 0)
(-14309.6 0 0)
(-17966.1 0 0)
(-24476.3 0 0)
(-26083.6 0 0)
(-20160.5 0 0)
(-4938.11 0 0)
(-7332.89 0 0)
(-10994.4 0 0)
(-14004 0 0)
(-16369.7 0 0)
(-18879.4 0 0)
(-21019.5 0 0)
(-22615.2 0 0)
(-23870.2 0 0)
(-24087.5 0 0)
(-22091.8 0 0)
(-18547.8 0 0)
(-15229.1 0 0)
(-12693.5 0 0)
(-11252.2 0 0)
(-11028.1 0 0)
(-11557.2 0 0)
(-10448.8 0 0)
(-6910.72 0 0)
(-14520.3 0 0)
(-16304.9 0 0)
(-7683.83 0 0)
(-17621.3 0 0)
(-13769.2 0 0)
(-12769.2 0 0)
(-7562.06 0 0)
(-20574.6 0 0)
(-18480.8 0 0)
(-16075.9 0 0)
(-15808.1 0 0)
(-11775.7 0 0)
(-5037.99 0 0)
(-19415 0 0)
(-23684.2 0 0)
(-22921.6 0 0)
(-21714.9 0 0)
(-21061.1 0 0)
(-18577.5 0 0)
(-16895.9 0 0)
(-10643.1 0 0)
(-19717.1 0 0)
(-20861.9 0 0)
(-18602 0 0)
(-8901.83 0 0)
(-16507.4 0 0)
(-17195.1 0 0)
(-15369.8 0 0)
(-13114.8 0 0)
(-4500.14 0 0)
(-16632.4 0 0)
(-10006.4 0 0)
(-3242.79 0 0)
(-11396.7 0 0)
(-6350.46 0 0)
(-20006.3 0 0)
(-20599.2 0 0)
(-17846.6 0 0)
(-19331.6 0 0)
(-18064.3 0 0)
(-20421.7 0 0)
(-19244 0 0)
(-13606.4 0 0)
(-2583.95 0 0)
(-14961.3 0 0)
(-16456.4 0 0)
(-16841.7 0 0)
(-15794.4 0 0)
(-16436.3 0 0)
(-15507.3 0 0)
(-15911.1 0 0)
(-22891 0 0)
(-17966.1 0 0)
(-10158 0 0)
(-22213.4 0 0)
(-21558.5 0 0)
(-22157.2 0 0)
(-20974.1 0 0)
(-21283.3 0 0)
(-18795.2 0 0)
(-12699.5 0 0)
(-22335.1 0 0)
(-23733.9 0 0)
(-24811 0 0)
(-24866 0 0)
(-25387.6 0 0)
(-26843.5 0 0)
(-23628.2 0 0)
(-19563 0 0)
(-11563.2 0 0)
(-20940.3 0 0)
(-19753.2 0 0)
(-21427.4 0 0)
(-26351.9 0 0)
(-24790.7 0 0)
(-23346.8 0 0)
(-25134.4 0 0)
(-26209 0 0)
(-25646.2 0 0)
(-25355.8 0 0)
(-12233.3 0 0)
(-5734.74 0 0)
(-9251.61 0 0)
(-14085.3 0 0)
(-18161.2 0 0)
(-21596 0 0)
(-25127.3 0 0)
(-28261 0 0)
(-30788.8 0 0)
(-32730 0 0)
(-33378.4 0 0)
(-31917.1 0 0)
(-29103.1 0 0)
(-26339.2 0 0)
(-24026.3 0 0)
(-22178.6 0 0)
(-20643.4 0 0)
(-18582.8 0 0)
(-12012.2 0 0)
(-27481.4 0 0)
(-27497.6 0 0)
(-25235 0 0)
(-19493.8 0 0)
(-31710.1 0 0)
(-28911.6 0 0)
(-27275.1 0 0)
(-24931.7 0 0)
(-26875.7 0 0)
(-21962 0 0)
(-12107.8 0 0)
(-24735 0 0)
(-18177.7 0 0)
(-10506.6 0 0)
(-19471.3 0 0)
(-35578.6 0 0)
(-33381.6 0 0)
(-30822.6 0 0)
(-26317 0 0)
(-16915.3 0 0)
(-29216.6 0 0)
(-24702.1 0 0)
(-29597.3 0 0)
(-31435.5 0 0)
(-27752.7 0 0)
(-21731.6 0 0)
(-18146.4 0 0)
(-30522.6 0 0)
(-27866.6 0 0)
(-23803 0 0)
(-15671.5 0 0)
(-21800.2 0 0)
(-9950.35 0 0)
(-20343.6 0 0)
(-17609.1 0 0)
(-9499.38 0 0)
(-21994.8 0 0)
(-33265.7 0 0)
(-30817.4 0 0)
(-26507.7 0 0)
(-17563 0 0)
(-29420.9 0 0)
(-25555.1 0 0)
(-18848.1 0 0)
(-7393.61 0 0)
(-18627.9 0 0)
(-29301.9 0 0)
(-26146.1 0 0)
(-23711.6 0 0)
(-21194.5 0 0)
(-14990.3 0 0)
(-28707.8 0 0)
(-31761.4 0 0)
(-25746.5 0 0)
(-18233.9 0 0)
(-30745.7 0 0)
(-35977.4 0 0)
(-35130.2 0 0)
(-33552.4 0 0)
(-32648.5 0 0)
(-29679.6 0 0)
(-25856.2 0 0)
(-17800.9 0 0)
(-22951 0 0)
(-36168.4 0 0)
(-33105.8 0 0)
(-26035.5 0 0)
(-38079.9 0 0)
(-35349.5 0 0)
(-31344.4 0 0)
(-27086.7 0 0)
(-22120.4 0 0)
(-15408 0 0)
(-20373.1 0 0)
(-35079.5 0 0)
(-34280.2 0 0)
(-33119.9 0 0)
(-32820.7 0 0)
(-30633.8 0 0)
(-25841.5 0 0)
(-23817.5 0 0)
(-6812.27 0 0)
(-6432.57 0 0)
(-10937.6 0 0)
(-16809.7 0 0)
(-21815.5 0 0)
(-26192 0 0)
(-30637.9 0 0)
(-34670.5 0 0)
(-38039.4 0 0)
(-40672.9 0 0)
(-41884.3 0 0)
(-41040.8 0 0)
(-38935.8 0 0)
(-36783.3 0 0)
(-34859.5 0 0)
(-33107.7 0 0)
(-31297.2 0 0)
(-28576.9 0 0)
(-21251.2 0 0)
(-36769.8 0 0)
(-35811.5 0 0)
(-28328.8 0 0)
(-42238.4 0 0)
(-42597.9 0 0)
(-42368.4 0 0)
(-40177.1 0 0)
(-37665 0 0)
(-32163.6 0 0)
(-26079.8 0 0)
(-18127 0 0)
(-31345.6 0 0)
(-22215.4 0 0)
(-33012.3 0 0)
(-28173.8 0 0)
(-44722.1 0 0)
(-42430.6 0 0)
(-41798.1 0 0)
(-35836.2 0 0)
(-25385.6 0 0)
(-36866.1 0 0)
(-39405.1 0 0)
(-41947.3 0 0)
(-39300.2 0 0)
(-32668.8 0 0)
(-22399.3 0 0)
(-34373.5 0 0)
(-42578.6 0 0)
(-40510.8 0 0)
(-37989.4 0 0)
(-34449.8 0 0)
(-29955.7 0 0)
(-18635.7 0 0)
(-33012.4 0 0)
(-26375.1 0 0)
(-17180.7 0 0)
(-29904.5 0 0)
(-43767.6 0 0)
(-41660.8 0 0)
(-39500.7 0 0)
(-36218.2 0 0)
(-34898.9 0 0)
(-29365.3 0 0)
(-24281 0 0)
(-20248 0 0)
(-31833.8 0 0)
(-38022.1 0 0)
(-34291.3 0 0)
(-31840.2 0 0)
(-27554 0 0)
(-18365.2 0 0)
(-27182.2 0 0)
(-39979.1 0 0)
(-32947 0 0)
(-33802.5 0 0)
(-28923.1 0 0)
(-45986.9 0 0)
(-44699.8 0 0)
(-42809.6 0 0)
(-42869.7 0 0)
(-42035 0 0)
(-37561.2 0 0)
(-29920.6 0 0)
(-31727.5 0 0)
(-48287.4 0 0)
(-47138.4 0 0)
(-44315.6 0 0)
(-46455.6 0 0)
(-46477.4 0 0)
(-43254.3 0 0)
(-40424.7 0 0)
(-36765.6 0 0)
(-31709.2 0 0)
(-24088.9 0 0)
(-37146.6 0 0)
(-41988 0 0)
(-39941 0 0)
(-37461.7 0 0)
(-32761.5 0 0)
(-25551.7 0 0)
(-22589.7 0 0)
(-3341.86 0 0)
(-6978.29 0 0)
(-12297.4 0 0)
(-19045.7 0 0)
(-24812.4 0 0)
(-29971.1 0 0)
(-35209.7 0 0)
(-40046.6 0 0)
(-44200.8 0 0)
(-47587.8 0 0)
(-49502.3 0 0)
(-49399.3 0 0)
(-48121 0 0)
(-46869.5 0 0)
(-45971.4 0 0)
(-45428.2 0 0)
(-45144.7 0 0)
(-44674.3 0 0)
(-42022.4 0 0)
(-35759 0 0)
(-49474.4 0 0)
(-47469.8 0 0)
(-46109.6 0 0)
(-38681.4 0 0)
(-52512.2 0 0)
(-52710.7 0 0)
(-48155 0 0)
(-39847.4 0 0)
(-27083.2 0 0)
(-34235.7 0 0)
(-38920.4 0 0)
(-51957.2 0 0)
(-51752.5 0 0)
(-47882.2 0 0)
(-48877.3 0 0)
(-40444.7 0 0)
(-57329.9 0 0)
(-54233.1 0 0)
(-48558.5 0 0)
(-41133.7 0 0)
(-54488.8 0 0)
(-52084.1 0 0)
(-48123.9 0 0)
(-43962.9 0 0)
(-36613 0 0)
(-51141.4 0 0)
(-49420.9 0 0)
(-47742 0 0)
(-51508.1 0 0)
(-48082.2 0 0)
(-41136.6 0 0)
(-31360.8 0 0)
(-47550.8 0 0)
(-41487.6 0 0)
(-33761.6 0 0)
(-49239.8 0 0)
(-47112 0 0)
(-43054 0 0)
(-50843.7 0 0)
(-46337.8 0 0)
(-38634.5 0 0)
(-27158.9 0 0)
(-36836.8 0 0)
(-47980.5 0 0)
(-45491.9 0 0)
(-39834.7 0 0)
(-32778.1 0 0)
(-44358.2 0 0)
(-42982 0 0)
(-38575.6 0 0)
(-32090.8 0 0)
(-48586.6 0 0)
(-46986.9 0 0)
(-42371.3 0 0)
(-37145.4 0 0)
(-51841.2 0 0)
(-47639.6 0 0)
(-41814.7 0 0)
(-56758.1 0 0)
(-55851.1 0 0)
(-52635.8 0 0)
(-49874.1 0 0)
(-43382.4 0 0)
(-62851.2 0 0)
(-61687.3 0 0)
(-61289.6 0 0)
(-59446.5 0 0)
(-56171.4 0 0)
(-52678.6 0 0)
(-49823.9 0 0)
(-46819.7 0 0)
(-45212.4 0 0)
(-40556.4 0 0)
(-34225.2 0 0)
(-46812.8 0 0)
(-44341 0 0)
(-40076.9 0 0)
(-33715.9 0 0)
(-25299.4 0 0)
(-21953.1 0 0)
(-1107.26 0 0)
(-7317.57 0 0)
(-13236.8 0 0)
(-20677.3 0 0)
(-27007.5 0 0)
(-32757.3 0 0)
(-38634.9 0 0)
(-44157.9 0 0)
(-49037.9 0 0)
(-53238.5 0 0)
(-55988.8 0 0)
(-56747.5 0 0)
(-56479.6 0 0)
(-56504.4 0 0)
(-57120.1 0 0)
(-58209.9 0 0)
(-59718.4 0 0)
(-61379.6 0 0)
(-61827.5 0 0)
(-60145.6 0 0)
(-58711.7 0 0)
(-52311.1 0 0)
(-46482.2 0 0)
(-58572.2 0 0)
(-52587 0 0)
(-68658.4 0 0)
(-67155.2 0 0)
(-65077.7 0 0)
(-62939.5 0 0)
(-61349.8 0 0)
(-54282.6 0 0)
(-71887.3 0 0)
(-70037.6 0 0)
(-67279.2 0 0)
(-62938.8 0 0)
(-55280.4 0 0)
(-74169.2 0 0)
(-73001 0 0)
(-71244.1 0 0)
(-68387.4 0 0)
(-66222.8 0 0)
(-60871.5 0 0)
(-51891.4 0 0)
(-66598.7 0 0)
(-62716.8 0 0)
(-57859.4 0 0)
(-45977 0 0)
(-56543.8 0 0)
(-66569.1 0 0)
(-63970.1 0 0)
(-58946.8 0 0)
(-49796.7 0 0)
(-65840 0 0)
(-63415.2 0 0)
(-60976.4 0 0)
(-55726.6 0 0)
(-42405.6 0 0)
(-49989 0 0)
(-65281.4 0 0)
(-61787.3 0 0)
(-56922.7 0 0)
(-48941.6 0 0)
(-65806.8 0 0)
(-63017 0 0)
(-56418.6 0 0)
(-45400.4 0 0)
(-58336.6 0 0)
(-59242.7 0 0)
(-58193.5 0 0)
(-51525.4 0 0)
(-39574.2 0 0)
(-46910.5 0 0)
(-56988.6 0 0)
(-66122.6 0 0)
(-62685.7 0 0)
(-58539 0 0)
(-48562.6 0 0)
(-63027.2 0 0)
(-69488.8 0 0)
(-68125.5 0 0)
(-65495.8 0 0)
(-60579.9 0 0)
(-53310.8 0 0)
(-73452.9 0 0)
(-71999.2 0 0)
(-71349.6 0 0)
(-68077.9 0 0)
(-63731.4 0 0)
(-58767.8 0 0)
(-52525 0 0)
(-41442.6 0 0)
(-52075.5 0 0)
(-53803.1 0 0)
(-49176 0 0)
(-44706.8 0 0)
(-47097.9 0 0)
(-41465.8 0 0)
(-34201 0 0)
(-25338 0 0)
(-21849.5 0 0)
(449.001 -0 0)
(-7390.97 0 0)
(-13644.3 0 0)
(-21580.3 0 0)
(-28254.8 0 0)
(-34363.4 0 0)
(-40661.9 0 0)
(-46672 0 0)
(-52134 0 0)
(-57142.6 0 0)
(-60831.7 0 0)
(-62704 0 0)
(-63580.9 0 0)
(-64666.2 0 0)
(-66137.7 0 0)
(-68271.1 0 0)
(-71117.5 0 0)
(-74237.8 0 0)
(-76311.9 0 0)
(-76698.1 0 0)
(-76908 0 0)
(-77439.4 0 0)
(-77979.9 0 0)
(-79355.9 0 0)
(-80450.9 0 0)
(-83692.6 0 0)
(-84057.5 0 0)
(-84698.1 0 0)
(-85343.4 0 0)
(-85715.3 0 0)
(-85330.3 0 0)
(-86908 0 0)
(-85952 0 0)
(-85443 0 0)
(-84876.1 0 0)
(-85402 0 0)
(-87621 0 0)
(-87228.8 0 0)
(-86745.6 0 0)
(-84920.8 0 0)
(-83218.7 0 0)
(-82626.8 0 0)
(-82725.1 0 0)
(-84342.3 0 0)
(-82547.9 0 0)
(-80401 0 0)
(-79015.1 0 0)
(-80150.3 0 0)
(-81214 0 0)
(-83325.7 0 0)
(-83334.1 0 0)
(-82780.2 0 0)
(-83198.6 0 0)
(-82447.9 0 0)
(-82117 0 0)
(-80338.1 0 0)
(-79093.4 0 0)
(-80584.7 0 0)
(-81260.1 0 0)
(-81616.4 0 0)
(-81893.1 0 0)
(-82429.9 0 0)
(-83339.9 0 0)
(-80766.7 0 0)
(-78760.5 0 0)
(-77191.8 0 0)
(-77507.5 0 0)
(-75387.5 0 0)
(-78731.9 0 0)
(-78703.9 0 0)
(-79202.7 0 0)
(-80596.7 0 0)
(-82138.8 0 0)
(-82860.9 0 0)
(-80762.5 0 0)
(-78767.1 0 0)
(-77970 0 0)
(-78408.8 0 0)
(-80325.5 0 0)
(-79138.8 0 0)
(-76739 0 0)
(-72347 0 0)
(-63513.4 0 0)
(-80834.7 0 0)
(-78343.9 0 0)
(-78309.6 0 0)
(-76338 0 0)
(-73463.1 0 0)
(-70619.6 0 0)
(-68366.9 0 0)
(-66220.4 0 0)
(-65966.2 0 0)
(-62871.7 0 0)
(-58223 0 0)
(-53281.9 0 0)
(-48883.3 0 0)
(-42304.7 0 0)
(-34595.2 0 0)
(-25657 0 0)
(-21824.5 0 0)
(1555.17 -0 0)
(-7212.93 0 0)
(-13471.5 0 0)
(-21678.2 0 0)
(-28483.3 0 0)
(-34676.4 0 0)
(-41050.2 0 0)
(-47170.9 0 0)
(-52856.7 0 0)
(-58401.2 0 0)
(-63089.1 0 0)
(-66375.5 0 0)
(-68020.6 0 0)
(-69652.8 0 0)
(-71761.1 0 0)
(-74628.7 0 0)
(-78205.3 0 0)
(-82044 0 0)
(-84997.8 0 0)
(-86667.3 0 0)
(-88221.7 0 0)
(-90113.2 0 0)
(-91204.8 0 0)
(-91621.3 0 0)
(-92203 0 0)
(-93392.3 0 0)
(-94351.5 0 0)
(-95521.3 0 0)
(-96543.8 0 0)
(-97009.3 0 0)
(-96591.2 0 0)
(-96160.4 0 0)
(-95951 0 0)
(-95915 0 0)
(-95989.2 0 0)
(-96167.1 0 0)
(-95929.1 0 0)
(-95979.8 0 0)
(-96030.9 0 0)
(-95106.8 0 0)
(-94479.4 0 0)
(-94899.5 0 0)
(-95436.3 0 0)
(-95479.4 0 0)
(-94826.2 0 0)
(-94095 0 0)
(-94014 0 0)
(-94355.1 0 0)
(-94706.5 0 0)
(-95521.3 0 0)
(-96217.1 0 0)
(-95790.9 0 0)
(-94562.5 0 0)
(-94615.1 0 0)
(-95046.6 0 0)
(-94543.1 0 0)
(-94433.5 0 0)
(-94336.8 0 0)
(-93753.2 0 0)
(-94079 0 0)
(-95017.5 0 0)
(-95309.8 0 0)
(-94276.6 0 0)
(-92873.4 0 0)
(-92340.7 0 0)
(-92126.8 0 0)
(-91862.8 0 0)
(-91684.6 0 0)
(-93364.7 0 0)
(-94761.4 0 0)
(-95123.8 0 0)