/*--------------------------------*- C++ -*----------------------------------*\
| =========                 |                                                 |
| \\      /  F ield         | foam-extend: Open Source CFD                    |
|  \\    /   O peration     | Version:     5.0                                |
|   \\  /    A nd           | Web:         http://www.foam-extend.org         |
|    \\/     M anipulation  |                                                 |
\*---------------------------------------------------------------------------*/
FoamFile
{
    version     2.0;
    format      ascii;
    class       volVectorField;
    location    "0.05";
    object      currentDensity;
}
// * * * * * * * * * * * * * * * * * * * * * * * * * * * * * * * * * * * * * //

dimensions      [0 -2 0 0 0 1 0];

internalField   nonuniform List<vector> 
4000
(
(0 0 -69.9922)
(0 0 -180.743)
(0 0 -274.979)
(0 0 -366.781)
(0 0 -438.286)
(0 0 -486.87)
(0 0 -527.617)
(0 0 -569.127)
(0 0 -613.345)
(0 0 -614.568)
(0 0 -712.074)
(0 0 -838.758)
(0 0 -916.444)
(0 0 -937.816)
(0 0 -829.704)
(0 0 -756.521)
(0 0 -684.677)
(0 0 -527.941)
(0 0 -516.271)
(0 0 -479.781)
(0 0 -534.926)
(0 0 -612.203)
(0 0 -718.766)
(0 0 -730.854)
(0 0 -757.939)
(0 0 -689.685)
(0 0 -477.362)
(0 0 -484.964)
(0 0 -661.538)
(0 0 -694.456)
(0 0 -641.084)
(0 0 -565.963)
(0 0 -628.248)
(0 0 -627.018)
(0 0 -611.971)
(0 0 -585.535)
(0 0 -558.991)
(0 0 -571.041)
(0 0 -631.967)
(0 0 -658.44)
(0 0 -567.284)
(0 0 -449.765)
(0 0 -464.731)
(0 0 -499.562)
(0 0 -530.305)
(0 0 -699.099)
(0 0 -629.196)
(0 0 -506.868)
(0 0 -316.147)
(0 0 -431.996)
(0 0 -500.945)
(0 0 -575.439)
(0 0 -478.688)
(0 0 -409.477)
(0 0 -457.503)
(0 0 -572.607)
(0 0 -464.17)
(0 0 -429.249)
(0 0 -447.265)
(0 0 -465.934)
(0 0 -418.266)
(0 0 -475.401)
(0 0 -695.655)
(0 0 -628.001)
(0 0 -526.355)
(0 0 -448.214)
(0 0 -511.301)
(0 0 -478.377)
(0 0 -371.711)
(0 0 -394.37)
(0 0 -413.338)
(0 0 -458.086)
(0 0 -632.662)
(0 0 -667)
(0 0 -643.268)
(0 0 -497.108)
(0 0 -460.592)
(0 0 -439.226)
(0 0 -293.18)
(0 0 -391.929)
(0 0 -409.127)
(0 0 -492.751)
(0 0 -518.688)
(0 0 -513.121)
(0 0 -359.398)
(0 0 -394.892)
(0 0 -357.578)
(0 0 -376.97)
(0 0 -418.905)
(0 0 -408.988)
(0 0 -371.318)
(0 0 -356.632)
(0 0 -321.034)
(0 0 -123.654)
(0 0 -53.7639)
(0 0 29.6862)
(0 0 70.3578)
(0 0 88.3877)
(0 0 48.5453)
(0 0 47.5006)
(0 0 -170.418)
(0 0 -428.205)
(0 0 -647.174)
(0 0 -852.455)
(0 0 -1020.95)
(0 0 -1149.97)
(0 0 -1261.97)
(0 0 -1370.48)
(0 0 -1472.29)
(0 0 -1398.67)
(0 0 -1646.35)
(0 0 -1870.28)
(0 0 -2005.96)
(0 0 -2037.7)
(0 0 -1578.43)
(0 0 -1567.86)
(0 0 -1580.79)
(0 0 -1074.66)
(0 0 -1348.51)
(0 0 -1359.91)
(0 0 -1439.87)
(0 0 -1189.41)
(0 0 -1442)
(0 0 -1598.02)
(0 0 -1684.06)
(0 0 -1471.46)
(0 0 -822.382)
(0 0 -1128.36)
(0 0 -1456.61)
(0 0 -1139.94)
(0 0 -1356.41)
(0 0 -1367.5)
(0 0 -1425.31)
(0 0 -1346.99)
(0 0 -1390.22)
(0 0 -1358.75)
(0 0 -1362.08)
(0 0 -1320.52)
(0 0 -1016.28)
(0 0 -1291.37)
(0 0 -1254)
(0 0 -1151.75)
(0 0 -1173.49)
(0 0 -1292.21)
(0 0 -1378.45)
(0 0 -1456.79)
(0 0 -876.802)
(0 0 -1038.64)
(0 0 -905.033)
(0 0 -1070.99)
(0 0 -659.245)
(0 0 -1120.39)
(0 0 -1138.07)
(0 0 -1092.58)
(0 0 -1161.6)
(0 0 -1108.56)
(0 0 -603.163)
(0 0 -891.354)
(0 0 -1043.26)
(0 0 -1109.26)
(0 0 -1083.91)
(0 0 -1100.49)
(0 0 -1366.63)
(0 0 -829.888)
(0 0 -1049.1)
(0 0 -1094.03)
(0 0 -1239.36)
(0 0 -1046.82)
(0 0 -703.997)
(0 0 -967.352)
(0 0 -1080.38)
(0 0 -1173.35)
(0 0 -1305.01)
(0 0 -903.765)
(0 0 -1266.43)
(0 0 -1225.98)
(0 0 -1234.68)
(0 0 -896.415)
(0 0 -417.65)
(0 0 -841.793)
(0 0 -1011.28)
(0 0 -1176.32)
(0 0 -1174.22)
(0 0 -1206.42)
(0 0 -528.64)
(0 0 -915.659)
(0 0 -1010.36)
(0 0 -991.874)
(0 0 -1070.53)
(0 0 -1088.93)
(0 0 -1060.67)
(0 0 -1015.83)
(0 0 -786.114)
(0 0 -34.9012)
(0 0 -265.523)
(0 0 -252.347)
(0 0 -183.478)
(0 0 -93.7569)
(0 0 -141.718)
(0 0 -154.134)
(0 0 -223.794)
(0 0 -552.698)
(0 0 -829.793)
(0 0 -1085.64)
(0 0 -1301.69)
(0 0 -1475.12)
(0 0 -1628.98)
(0 0 -1770.93)
(0 0 -1895.11)
(0 0 -1975.89)
(0 0 -2122.56)
(0 0 -2282.63)
(0 0 -2360.91)
(0 0 -2303.73)
(0 0 -1840.61)
(0 0 -1474.26)
(0 0 -1897.83)
(0 0 -1968.14)
(0 0 -2021.99)
(0 0 -2000.47)
(0 0 -2068.22)
(0 0 -1519.92)
(0 0 -1301.15)
(0 0 -1799.85)
(0 0 -1866.79)
(0 0 -1203.48)
(0 0 -1407.57)
(0 0 -1575.98)
(0 0 -1794.86)
(0 0 -1086.98)
(0 0 -1453.63)
(0 0 -1587.71)
(0 0 -1628.03)
(0 0 -1077.58)
(0 0 -1517.54)
(0 0 -1707.3)
(0 0 -1663.16)
(0 0 -1380.2)
(0 0 -1533.29)
(0 0 -920.649)
(0 0 -1226.39)
(0 0 -1317.16)
(0 0 -1421.19)
(0 0 -1591.32)
(0 0 -1729.06)
(0 0 -1399.04)
(0 0 -732.692)
(0 0 -1055.54)
(0 0 -1095.47)
(0 0 -1322.73)
(0 0 -678.726)
(0 0 -1172.65)
(0 0 -1343.45)
(0 0 -1369.67)
(0 0 -1470.92)
(0 0 -1046.27)
(0 0 -493.469)
(0 0 -995.371)
(0 0 -1218.14)
(0 0 -1252.6)
(0 0 -1323.47)
(0 0 -1462.9)
(0 0 -1153.13)
(0 0 -614.742)
(0 0 -1009.72)
(0 0 -1251.1)
(0 0 -1512.96)
(0 0 -989.654)
(0 0 -1295.13)
(0 0 -1304.67)
(0 0 -1401.02)
(0 0 -1519.55)
(0 0 -1281.21)
(0 0 -805.623)
(0 0 -1337.56)
(0 0 -1473.06)
(0 0 -1589.1)
(0 0 -1037.92)
(0 0 -669.998)
(0 0 -1031.61)
(0 0 -1274.84)
(0 0 -1553.86)
(0 0 -1048.57)
(0 0 -1318.58)
(0 0 -706.462)
(0 0 -1238.74)
(0 0 -1446)
(0 0 -1582.53)
(0 0 -1383.93)
(0 0 -1371.74)
(0 0 -1383.26)
(0 0 -1249.48)
(0 0 -564.552)
(0 0 -103.823)
(0 0 -506.855)
(0 0 -595.893)
(0 0 -537.591)
(0 0 -99.0818)
(0 0 -264.168)
(0 0 -69.7969)
(0 0 -231.787)
(0 0 -589.842)
(0 0 -886.854)
(0 0 -1162.04)
(0 0 -1399.96)
(0 0 -1595.85)
(0 0 -1772.86)
(0 0 -1932.53)
(0 0 -2073.62)
(0 0 -2211.66)
(0 0 -2305.22)
(0 0 -2248.09)
(0 0 -2367.15)
(0 0 -1831.61)
(0 0 -2230.59)
(0 0 -2315.94)
(0 0 -2408.93)
(0 0 -2499.59)
(0 0 -2527.14)
(0 0 -2449.84)
(0 0 -2536.84)
(0 0 -1690.25)
(0 0 -2064.55)
(0 0 -2299.99)
(0 0 -1478.63)
(0 0 -1669.82)
(0 0 -1828.93)
(0 0 -1962.47)
(0 0 -1726.33)
(0 0 -975.058)
(0 0 -1407.55)
(0 0 -1658.85)
(0 0 -1161.72)
(0 0 -1547.03)
(0 0 -1822.16)
(0 0 -1802.52)
(0 0 -1413.87)
(0 0 -1649.48)
(0 0 -1082.95)
(0 0 -629.742)
(0 0 -1107.06)
(0 0 -1323.7)
(0 0 -1375.32)
(0 0 -1602.68)
(0 0 -1752.65)
(0 0 -1025.82)
(0 0 -475.917)
(0 0 -976.97)
(0 0 -1150.9)
(0 0 -1310.85)
(0 0 -612.407)
(0 0 -1164.8)
(0 0 -1444.54)
(0 0 -1552.37)
(0 0 -1464.21)
(0 0 -767.323)
(0 0 -441.888)
(0 0 -1111.38)
(0 0 -1457.89)
(0 0 -902.902)
(0 0 -1282.23)
(0 0 -1443.97)
(0 0 -906.582)
(0 0 -378.857)
(0 0 -873.143)
(0 0 -1234.05)
(0 0 -1600.12)
(0 0 -1663.23)
(0 0 -1744.14)
(0 0 -1097.47)
(0 0 -1413.8)
(0 0 -1601.87)
(0 0 -1166.32)
(0 0 -717.79)
(0 0 -1310.72)
(0 0 -1554.71)
(0 0 -1757.49)
(0 0 -1803.68)
(0 0 -1821.88)
(0 0 -965.517)
(0 0 -1432.71)
(0 0 -1635.64)
(0 0 -1729.45)
(0 0 -1079.53)
(0 0 -1427.79)
(0 0 -1717.75)
(0 0 -1834.68)
(0 0 -1928.66)
(0 0 -1853.8)
(0 0 -1062.45)
(0 0 -1249.95)
(0 0 -634.932)
(0 0 -969.241)
(0 0 -1031.76)
(0 0 -1023.02)
(0 0 -966.346)
(0 0 -761.531)
(0 0 -575.089)
(0 0 -301.937)
(0 0 -298.52)
(0 0 -200.447)
(0 0 -562.515)
(0 0 -854.198)
(0 0 -1124.09)
(0 0 -1364.84)
(0 0 -1567.89)
(0 0 -1757.27)
(0 0 -1926.3)
(0 0 -2097.54)
(0 0 -2236.27)
(0 0 -2160.02)
(0 0 -2262.38)
(0 0 -1759.69)
(0 0 -2162.86)
(0 0 -2473.17)
(0 0 -2641.37)
(0 0 -2724.64)
(0 0 -2797)
(0 0 -2840.47)
(0 0 -2824.26)
(0 0 -2845.53)
(0 0 -2010.15)
(0 0 -2315.33)
(0 0 -2427.09)
(0 0 -1571.1)
(0 0 -1882.28)
(0 0 -2091)
(0 0 -2161.98)
(0 0 -1344.85)
(0 0 -733.945)
(0 0 -1299.62)
(0 0 -1637.38)
(0 0 -1753.2)
(0 0 -1972.76)
(0 0 -1940.88)
(0 0 -1240.45)
(0 0 -1531.47)
(0 0 -1743.17)
(0 0 -1010.88)
(0 0 -671.965)
(0 0 -1189.98)
(0 0 -1306.44)
(0 0 -767.796)
(0 0 -1208.54)
(0 0 -1386.59)
(0 0 -790.911)
(0 0 -352.562)
(0 0 -977.773)
(0 0 -1207.19)
(0 0 -743.248)
(0 0 -393.851)
(0 0 -965.614)
(0 0 -1337.21)
(0 0 -1510.69)
(0 0 -878.432)
(0 0 -598.847)
(0 0 -1169.2)
(0 0 -1545.77)
(0 0 -1615.38)
(0 0 -1618.19)
(0 0 -1663.58)
(0 0 -895.306)
(0 0 -492.541)
(0 0 -243.996)
(0 0 -855.047)
(0 0 -1120.08)
(0 0 -1532.41)
(0 0 -1735.37)
(0 0 -1829.25)
(0 0 -1782.02)
(0 0 -1180.67)
(0 0 -1516.86)
(0 0 -1379.28)
(0 0 -788.764)
(0 0 -1318.26)
(0 0 -1610.39)
(0 0 -1818.49)
(0 0 -1859.4)
(0 0 -2110.46)
(0 0 -1243.51)
(0 0 -1692.27)
(0 0 -1064.62)
(0 0 -1572.16)
(0 0 -1725.61)
(0 0 -1922.71)
(0 0 -1911.01)
(0 0 -2020.32)
(0 0 -2097.48)
(0 0 -1372.37)
(0 0 -1530.08)
(0 0 -712.151)
(0 0 -897.653)
(0 0 -1117.69)
(0 0 -1319.12)
(0 0 -1291.14)
(0 0 -1094.44)
(0 0 -576.452)
(0 0 -661.881)
(0 0 96.4512)
(0 0 -204.257)
(0 0 -144.112)
(0 0 -487.792)
(0 0 -754.067)
(0 0 -991.191)
(0 0 -1219.03)
(0 0 -1418.86)
(0 0 -1614.49)
(0 0 -1792.78)
(0 0 -1952.86)
(0 0 -2133.46)
(0 0 -2286.7)
(0 0 -1567.77)
(0 0 -1951.17)
(0 0 -2252.98)
(0 0 -2515.73)
(0 0 -2691.34)
(0 0 -2785.31)
(0 0 -2851.1)
(0 0 -2915)
(0 0 -2913.68)
(0 0 -2924.48)
(0 0 -2837.22)
(0 0 -2051.4)
(0 0 -1872.52)
(0 0 -2026.01)
(0 0 -2186.5)
(0 0 -2263.46)
(0 0 -2092.86)
(0 0 -1195.3)
(0 0 -723.931)
(0 0 -1305.96)
(0 0 -1500.83)
(0 0 -1812.2)
(0 0 -1989.5)
(0 0 -1348.28)
(0 0 -1478.84)
(0 0 -1426.86)
(0 0 -1670.28)
(0 0 -926.207)
(0 0 -1388.74)
(0 0 -1528.83)
(0 0 -936.036)
(0 0 -1264.69)
(0 0 -688.45)
(0 0 -357.643)
(0 0 -977.989)
(0 0 -703.574)
(0 0 -1194.5)
(0 0 -1220.86)
(0 0 -1428.06)
(0 0 -777.707)
(0 0 -524.151)
(0 0 -1009.55)
(0 0 -1288.16)
(0 0 -1118.96)
(0 0 -1410.88)
(0 0 -1734.93)
(0 0 -1942.18)
(0 0 -1145.1)
(0 0 -1554.65)
(0 0 -1669.94)
(0 0 -910.464)
(0 0 -420.354)
(0 0 -941.515)
(0 0 -1211.54)
(0 0 -656.112)
(0 0 -1166.11)
(0 0 -1524.49)
(0 0 -1688.5)
(0 0 -1759)
(0 0 -1821.45)
(0 0 -1236.64)
(0 0 -1580.3)
(0 0 -883.746)
(0 0 -1290.32)
(0 0 -1536.33)
(0 0 -1737.09)
(0 0 -1893.3)
(0 0 -2124.09)
(0 0 -2046.13)
(0 0 -2083.66)
(0 0 -1140.57)
(0 0 -1580.69)
(0 0 -1842.15)
(0 0 -2054.07)
(0 0 -1257.7)
(0 0 -1727.03)
(0 0 -1826.01)
(0 0 -1569.79)
(0 0 -1580.86)
(0 0 -673.612)
(0 0 -321.313)
(0 0 -925.615)
(0 0 -1228.77)
(0 0 -1324.16)
(0 0 -1152.44)
(0 0 -897.272)
(0 0 -746.84)
(0 0 250.127)
(0 0 -26.5485)
(0 0 -79.9247)
(0 0 -384.094)
(0 0 -610.276)
(0 0 -783.966)
(0 0 -992.85)
(0 0 -1187.98)
(0 0 -1385.87)
(0 0 -1553.35)
(0 0 -1706.24)
(0 0 -1860.09)
(0 0 -2034.56)
(0 0 -1282.5)
(0 0 -1742.35)
(0 0 -2061.29)
(0 0 -2335.13)
(0 0 -2524.24)
(0 0 -2632.29)
(0 0 -2695.14)
(0 0 -2793.33)
(0 0 -2716.16)
(0 0 -2693.88)
(0 0 -2826.68)
(0 0 -2061.28)
(0 0 -1500.19)
(0 0 -1974.91)
(0 0 -2175.97)
(0 0 -2226.18)
(0 0 -1398.13)
(0 0 -952.71)
(0 0 -1368.36)
(0 0 -1622.1)
(0 0 -959.057)
(0 0 -1397.97)
(0 0 -1573.98)
(0 0 -1689.3)
(0 0 -1079.19)
(0 0 -889.603)
(0 0 -1439.82)
(0 0 -840.932)
(0 0 -1451.68)
(0 0 -1598.26)
(0 0 -1564.88)
(0 0 -1680.45)
(0 0 -801.728)
(0 0 -306.015)
(0 0 -1017)
(0 0 -1337.3)
(0 0 -1597.28)
(0 0 -1632.64)
(0 0 -1631.51)
(0 0 -1385.99)
(0 0 -1049.35)
(0 0 -504.35)
(0 0 -1023.13)
(0 0 -1320.27)
(0 0 -1644.29)
(0 0 -1946.27)
(0 0 -2090.05)
(0 0 -1127.94)
(0 0 -1471.32)
(0 0 -1582.58)
(0 0 -891.052)
(0 0 -443.386)
(0 0 -1141.38)
(0 0 -1409.02)
(0 0 -1038.52)
(0 0 -574.999)
(0 0 -1169.96)
(0 0 -1447.54)
(0 0 -1659.76)
(0 0 -1855.32)
(0 0 -1834.7)
(0 0 -1226.44)
(0 0 -953.035)
(0 0 -724.276)
(0 0 -1159.69)
(0 0 -1489.18)
(0 0 -1730.23)
(0 0 -1925.33)
(0 0 -1849.95)
(0 0 -1896.23)
(0 0 -1010.61)
(0 0 -1482.95)
(0 0 -1745.91)
(0 0 -1976.02)
(0 0 -1151.33)
(0 0 -1573.19)
(0 0 -955.211)
(0 0 -436.483)
(0 0 -954.417)
(0 0 -921.181)
(0 0 -993.854)
(0 0 -1171.34)
(0 0 -1195.47)
(0 0 -1193.2)
(0 0 -883.915)
(0 0 -816.025)
(0 0 -571.106)
(0 0 331.614)
(0 0 282.499)
(0 0 -19.2394)
(0 0 -267.943)
(0 0 -446.079)
(0 0 -518.872)
(0 0 -716.355)
(0 0 -912.037)
(0 0 -1103.61)
(0 0 -1211.12)
(0 0 -1411.65)
(0 0 -1438.21)
(0 0 -1654.47)
(0 0 -1150.53)
(0 0 -1356.48)
(0 0 -1698.84)
(0 0 -2000.98)
(0 0 -2215.78)
(0 0 -2343.9)
(0 0 -2422.68)
(0 0 -2510.35)
(0 0 -2494.55)
(0 0 -2499.77)
(0 0 -2603.5)
(0 0 -2568.51)
(0 0 -1645.85)
(0 0 -1980.44)
(0 0 -2078.53)
(0 0 -2084.69)
(0 0 -1266.6)
(0 0 -1530.29)
(0 0 -1700.35)
(0 0 -1765.39)
(0 0 -972.018)
(0 0 -736.577)
(0 0 -1224.61)
(0 0 -1444.54)
(0 0 -1535.45)
(0 0 -1485.08)
(0 0 -1624.71)
(0 0 -953.71)
(0 0 -1378.37)
(0 0 -1513.34)
(0 0 -1611.43)
(0 0 -1715.56)
(0 0 -1027.03)
(0 0 -530.502)
(0 0 -1171.81)
(0 0 -1532.38)
(0 0 -1717.92)
(0 0 -1699.45)
(0 0 -1095.44)
(0 0 -1521.85)
(0 0 -1526.17)
(0 0 -632.851)
(0 0 -1019)
(0 0 -1327.27)
(0 0 -1657.19)
(0 0 -1855.02)
(0 0 -1868.37)
(0 0 -1019.18)
(0 0 -1323.43)
(0 0 -1438.12)
(0 0 -1474.24)
(0 0 -747.763)
(0 0 -1323.52)
(0 0 -1533.79)
(0 0 -1178.32)
(0 0 -572.2)
(0 0 -1089.11)
(0 0 -1311.93)
(0 0 -1527.74)
(0 0 -1536.84)
(0 0 -1627.67)
(0 0 -1639.35)
(0 0 -1040.15)
(0 0 -1375.1)
(0 0 -722.589)
(0 0 -1183.34)
(0 0 -1478.03)
(0 0 -1648.03)
(0 0 -1745.77)
(0 0 -1161.2)
(0 0 -674.623)
(0 0 -1301.82)
(0 0 -1531.33)
(0 0 -1785.53)
(0 0 -1353.43)
(0 0 -1477.29)
(0 0 -600.247)
(0 0 -142.12)
(0 0 -667.249)
(0 0 -964.702)
(0 0 -1024.62)
(0 0 -1034.49)
(0 0 -790.842)
(0 0 -848.445)
(0 0 -421.393)
(0 0 -500.376)
(0 0 92.9529)
(0 0 317.686)
(0 0 784.566)
(0 0 33.958)
(0 0 -152.131)
(0 0 -277.175)
(0 0 -198.469)
(0 0 -411.988)
(0 0 -621.434)
(0 0 -792.253)
(0 0 -733.977)
(0 0 -1038.34)
(0 0 -1120.15)
(0 0 -1284.39)
(0 0 -1371.06)
(0 0 -1527.66)
(0 0 -1187)
(0 0 -1563.78)
(0 0 -1833.55)
(0 0 -1971.6)
(0 0 -2045.14)
(0 0 -2094.22)
(0 0 -2060.13)
(0 0 -2069.15)
(0 0 -2182.67)
(0 0 -2245.33)
(0 0 -1547.54)
(0 0 -1850.44)
(0 0 -1878.85)
(0 0 -1811.04)
(0 0 -1615.66)
(0 0 -1683.45)
(0 0 -1778.21)
(0 0 -1434.95)
(0 0 -788.015)
(0 0 -1094.78)
(0 0 -751.529)
(0 0 -1102.22)
(0 0 -1373.46)
(0 0 -1400.7)
(0 0 -1510.26)
(0 0 -1218.93)
(0 0 -890.313)
(0 0 -1297.65)
(0 0 -1427.33)
(0 0 -1492.62)
(0 0 -817.991)
(0 0 -1122.09)
(0 0 -1407.32)
(0 0 -1622.85)
(0 0 -1635.34)
(0 0 -1548.92)
(0 0 -1321.66)
(0 0 -1520.14)
(0 0 -1156.14)
(0 0 -609.494)
(0 0 -989.765)
(0 0 -1249.72)
(0 0 -1488.47)
(0 0 -1394.47)
(0 0 -999)
(0 0 -1017.87)
(0 0 -1140.39)
(0 0 -1182.23)
(0 0 -1354.53)
(0 0 -995.347)
(0 0 -1415.17)
(0 0 -1532.71)
(0 0 -1553.02)
(0 0 -741.382)
(0 0 -1088.68)
(0 0 -1176.66)
(0 0 -1317.36)
(0 0 -836.911)
(0 0 -971.6)
(0 0 -1317.46)
(0 0 -1445.33)
(0 0 -1608.68)
(0 0 -802.726)
(0 0 -1096.9)
(0 0 -1282.52)
(0 0 -1394.12)
(0 0 -1433.96)
(0 0 -1382.93)
(0 0 -748.113)
(0 0 -1266.13)
(0 0 -1439.29)
(0 0 -1573.55)
(0 0 -1255.6)
(0 0 -843.411)
(0 0 -377.233)
(0 0 -576.029)
(0 0 -712.785)
(0 0 -854.644)
(0 0 -501.228)
(0 0 -804.63)
(0 0 -717.726)
(0 0 -182.672)
(0 0 -76.519)
(0 0 -146.543)
(0 0 356.015)
(0 0 765.907)
(0 0 917.13)
(0 0 80.1759)
(0 0 -43.8124)
(0 0 -114.834)
(0 0 -150.226)
(0 0 -96.4106)
(0 0 -337.967)
(0 0 -469.573)
(0 0 -540.176)
(0 0 -668.053)
(0 0 -719.811)
(0 0 -862.049)
(0 0 -1085.14)
(0 0 -1253.42)
(0 0 -1333.64)
(0 0 -1068.82)
(0 0 -1461.05)
(0 0 -1566.44)
(0 0 -1591.71)
(0 0 -1576.35)
(0 0 -1462.21)
(0 0 -1499.25)
(0 0 -1636.62)
(0 0 -1375.02)
(0 0 -1613.93)
(0 0 -1668.91)
(0 0 -1565.5)
(0 0 -1370.56)
(0 0 -1294.64)
(0 0 -1385.97)
(0 0 -1499.72)
(0 0 -1362.53)
(0 0 -922.353)
(0 0 -1139.12)
(0 0 -1078.71)
(0 0 -861.047)
(0 0 -1130.15)
(0 0 -1119.11)
(0 0 -1169.82)
(0 0 -798.624)
(0 0 -1095.9)
(0 0 -1200.24)
(0 0 -1146.42)
(0 0 -1105.39)
(0 0 -1007.26)
(0 0 -1177.4)
(0 0 -1355.62)
(0 0 -1475.49)
(0 0 -1243.47)
(0 0 -1190.89)
(0 0 -1097.75)
(0 0 -1236.42)
(0 0 -804.869)
(0 0 -957.655)
(0 0 -978.634)
(0 0 -1081.82)
(0 0 -1088.04)
(0 0 -1246.27)
(0 0 -1017.83)
(0 0 -1120.68)
(0 0 -585.702)
(0 0 -789.461)
(0 0 -1006.81)
(0 0 -1169.5)
(0 0 -1348.75)
(0 0 -1361.11)
(0 0 -1418.09)
(0 0 -762.57)
(0 0 -987.198)
(0 0 -920.381)
(0 0 -956.091)
(0 0 -910.927)
(0 0 -445.642)
(0 0 -903.634)
(0 0 -1190.12)
(0 0 -1413.99)
(0 0 -963.644)
(0 0 -793.5)
(0 0 -986.306)
(0 0 -1031.75)
(0 0 -985.006)
(0 0 -1034.81)
(0 0 -966.569)
(0 0 -1203.62)
(0 0 -1218.11)
(0 0 -1221.15)
(0 0 -1156.97)
(0 0 -654.184)
(0 0 -384.109)
(0 0 -547.803)
(0 0 -555.256)
(0 0 -598.857)
(0 0 -511.051)
(0 0 -562.41)
(0 0 -281.249)
(0 0 149.152)
(0 0 146.778)
(0 0 201.852)
(0 0 707.826)
(0 0 863.647)
(0 0 1245.87)
(0 0 121.767)
(0 0 57.9368)
(0 0 46.4883)
(0 0 27.0485)
(0 0 14.1053)
(0 0 -59.4896)
(0 0 -122.019)
(0 0 -193.688)
(0 0 -257.866)
(0 0 -288.979)
(0 0 -426.938)
(0 0 -688.923)
(0 0 -790.447)
(0 0 -1062.43)
(0 0 -1065.34)
(0 0 -1150.95)
(0 0 -1118.48)
(0 0 -1063.93)
(0 0 -966.13)
(0 0 -961.203)
(0 0 -895.521)
(0 0 -1037.75)
(0 0 -1102.02)
(0 0 -1301.66)
(0 0 -1273.55)
(0 0 -1080.09)
(0 0 -751.121)
(0 0 -757.77)
(0 0 -879.465)
(0 0 -1034.15)
(0 0 -1029.69)
(0 0 -871.224)
(0 0 -905.418)
(0 0 -821.571)
(0 0 -700.038)
(0 0 -800.273)
(0 0 -676.5)
(0 0 -677.253)
(0 0 -803.188)
(0 0 -967.766)
(0 0 -926.463)
(0 0 -787.794)
(0 0 -538.827)
(0 0 -619.223)
(0 0 -860.38)
(0 0 -1065.75)
(0 0 -1126.38)
(0 0 -930.467)
(0 0 -741.525)
(0 0 -631.322)
(0 0 -807.376)
(0 0 -835.84)
(0 0 -828.356)
(0 0 -681.923)
(0 0 -716.404)
(0 0 -830.954)
(0 0 -830.977)
(0 0 -690.386)
(0 0 -812.865)
(0 0 -553.175)
(0 0 -445.393)
(0 0 -588.806)
(0 0 -902.991)
(0 0 -1024.05)
(0 0 -977.433)
(0 0 -1024.9)
(0 0 -855.448)
(0 0 -723.719)
(0 0 -472.509)
(0 0 -440.661)
(0 0 -513.726)
(0 0 -376.062)
(0 0 -556.888)
(0 0 -827.733)
(0 0 -1010.62)
(0 0 -909.855)
(0 0 -684.328)
(0 0 -648.796)
(0 0 -580.881)
(0 0 -440.123)
(0 0 -489.219)
(0 0 -663.299)
(0 0 -841.438)
(0 0 -768.418)
(0 0 -683.855)
(0 0 -673.889)
(0 0 -487.729)
(0 0 -307.437)
(0 0 -290.633)
(0 0 -212.658)
(0 0 -190.454)
(0 0 -186.229)
(0 0 -123.35)
(0 0 22.6311)
(0 0 267.558)
(0 0 363.084)
(0 0 564.794)
(0 0 898.487)
(0 0 1056.64)
(0 0 1590.18)
(0 0 162.731)
(0 0 160.296)
(0 0 214.824)
(0 0 248.547)
(0 0 260.108)
(0 0 268.943)
(0 0 267.948)
(0 0 242.588)
(0 0 229.769)
(0 0 219.15)
(0 0 89.9377)
(0 0 -165.694)
(0 0 -356.386)
(0 0 -557.255)
(0 0 -615.714)
(0 0 -613.644)
(0 0 -512.129)
(0 0 -422.167)
(0 0 -381.392)
(0 0 -397.412)
(0 0 -233.726)
(0 0 -370.685)
(0 0 -561.453)
(0 0 -765.585)
(0 0 -663.808)
(0 0 -453.761)
(0 0 -85.7873)
(0 0 -123.237)
(0 0 -221.127)
(0 0 -385.558)
(0 0 -439.351)
(0 0 -398.006)
(0 0 -349.285)
(0 0 -246.63)
(0 0 -187.58)
(0 0 -207.704)
(0 0 -37.6737)
(0 0 -40.7628)
(0 0 -337.802)
(0 0 -492.636)
(0 0 -364.312)
(0 0 -187.911)
(0 0 31.0338)
(0 0 -115.971)
(0 0 -308.621)
(0 0 -529.273)
(0 0 -545.658)
(0 0 -341.787)
(0 0 -248.698)
(0 0 -60.2361)
(0 0 -298.28)
(0 0 -422.133)
(0 0 -342.4)
(0 0 -144.441)
(0 0 -138.404)
(0 0 -305.29)
(0 0 -276.366)
(0 0 -156.27)
(0 0 -228.231)
(0 0 -31.8854)
(0 0 77.4147)
(0 0 -54.0388)
(0 0 -420.259)
(0 0 -451.917)
(0 0 -413.342)
(0 0 -453.865)
(0 0 -377.873)
(0 0 -163.592)
(0 0 147.186)
(0 0 175.205)
(0 0 75.3878)
(0 0 71.0037)
(0 0 -48.8815)
(0 0 -234.564)
(0 0 -446.909)
(0 0 -344.595)
(0 0 -113.743)
(0 0 -83.2395)
(0 0 0.0252303)
(0 0 146.147)
(0 0 128.649)
(0 0 -59.1881)
(0 0 -217.434)
(0 0 -92.1003)
(0 0 20.2817)
(0 0 3.31394)
(0 0 51.004)
(0 0 113.47)
(0 0 146.161)
(0 0 232.54)
(0 0 314.343)
(0 0 273.23)
(0 0 302.722)
(0 0 316.133)
(0 0 477.679)
(0 0 559.271)
(0 0 871.957)
(0 0 1104.75)
(0 0 1217.83)
(0 0 1466.77)
(0 0 204.827)
(0 0 264.044)
(0 0 383.531)
(0 0 475.686)
(0 0 536.985)
(0 0 606.064)
(0 0 658.656)
(0 0 685.021)
(0 0 709.355)
(0 0 704.304)
(0 0 581.961)
(0 0 360.657)
(0 0 164.795)
(0 0 9.50854)
(0 0 -56.0674)
(0 0 -31.9672)
(0 0 66.5941)
(0 0 126.717)
(0 0 84.9166)
(0 0 -12.4215)
(0 0 344.357)
(0 0 174.157)
(0 0 105.848)
(0 0 -83.1506)
(0 0 -24.8444)
(0 0 -51.692)
(0 0 511.055)
(0 0 402.476)
(0 0 372.771)
(0 0 247.994)
(0 0 142.971)
(0 0 109.576)
(0 0 308.669)
(0 0 440.582)
(0 0 456.483)
(0 0 443.54)
(0 0 546.521)
(0 0 497.194)
(0 0 254.253)
(0 0 87.0873)
(0 0 280.22)
(0 0 355.829)
(0 0 511.765)
(0 0 297.508)
(0 0 245.003)
(0 0 116.146)
(0 0 95.4452)
(0 0 184.634)
(0 0 5.40081)
(0 0 408.028)
(0 0 28.3082)
(0 0 29.4875)
(0 0 179.018)
(0 0 296.315)
(0 0 453.343)
(0 0 336.961)
(0 0 348.543)
(0 0 424.142)
(0 0 392.223)
(0 0 514.892)
(0 0 502.379)
(0 0 369.605)
(0 0 46.0057)
(0 0 150.71)
(0 0 193.505)
(0 0 191.233)
(0 0 221.251)
(0 0 399.695)
(0 0 626.134)
(0 0 638.68)
(0 0 614.148)
(0 0 518.544)
(0 0 371.681)
(0 0 371.955)
(0 0 244.991)
(0 0 357.977)
(0 0 485.302)
(0 0 495.63)
(0 0 520.704)
(0 0 552.516)
(0 0 582.879)
(0 0 555.416)
(0 0 514.563)
(0 0 602.747)
(0 0 699.182)
(0 0 689.381)
(0 0 631.365)
(0 0 580.666)
(0 0 521.47)
(0 0 558.931)
(0 0 783.23)
(0 0 783.536)
(0 0 804.58)
(0 0 738.969)
(0 0 553.615)
(0 0 715.478)
(0 0 898.304)
(0 0 1223.82)
(0 0 1304.18)
(0 0 1008.02)
(0 0 246.905)
(0 0 366.645)
(0 0 549.721)
(0 0 700.2)
(0 0 818.486)
(0 0 943.971)
(0 0 1050.98)
(0 0 1130.76)
(0 0 1193.51)
(0 0 1204.38)
(0 0 1104.59)
(0 0 927.391)
(0 0 761.455)
(0 0 634.673)
(0 0 562.612)
(0 0 551.407)
(0 0 577.858)
(0 0 522.438)
(0 0 345.536)
(0 0 726.015)
(0 0 815.243)
(0 0 384.192)
(0 0 881.063)
(0 0 688.462)
(0 0 638.46)
(0 0 378.103)
(0 0 1028.73)
(0 0 924.042)
(0 0 803.797)
(0 0 790.404)
(0 0 588.786)
(0 0 251.899)
(0 0 970.748)
(0 0 1184.21)
(0 0 1146.08)
(0 0 1085.75)
(0 0 1053.05)
(0 0 928.874)
(0 0 844.796)
(0 0 532.155)
(0 0 985.854)
(0 0 1043.09)
(0 0 930.098)
(0 0 445.092)
(0 0 825.37)
(0 0 859.757)
(0 0 768.49)
(0 0 655.738)
(0 0 225.007)
(0 0 831.618)
(0 0 500.321)
(0 0 162.139)
(0 0 569.837)
(0 0 317.523)
(0 0 1000.32)
(0 0 1029.96)
(0 0 892.331)
(0 0 966.581)
(0 0 903.216)
(0 0 1021.09)
(0 0 962.198)
(0 0 680.321)
(0 0 129.197)
(0 0 748.063)
(0 0 822.822)
(0 0 842.083)
(0 0 789.722)
(0 0 821.817)
(0 0 775.366)
(0 0 795.555)
(0 0 1144.55)
(0 0 898.304)
(0 0 507.9)
(0 0 1110.67)
(0 0 1077.92)
(0 0 1107.86)
(0 0 1048.7)
(0 0 1064.17)
(0 0 939.761)
(0 0 634.976)
(0 0 1116.76)
(0 0 1186.69)
(0 0 1240.55)
(0 0 1243.3)
(0 0 1269.38)
(0 0 1342.17)
(0 0 1181.41)
(0 0 978.15)
(0 0 578.16)
(0 0 1047.02)
(0 0 987.662)
(0 0 1071.37)
(0 0 1317.6)
(0 0 1239.54)
(0 0 1167.34)
(0 0 1256.72)
(0 0 1310.45)
(0 0 1282.31)
(0 0 1267.79)
(0 0 611.666)
(0 0 286.737)
(0 0 462.581)
(0 0 704.264)
(0 0 908.062)
(0 0 1079.8)
(0 0 1256.37)
(0 0 1413.05)
(0 0 1539.44)
(0 0 1636.5)
(0 0 1668.92)
(0 0 1595.85)
(0 0 1455.16)
(0 0 1316.96)
(0 0 1201.32)
(0 0 1108.93)
(0 0 1032.17)
(0 0 929.142)
(0 0 600.611)
(0 0 1374.07)
(0 0 1374.88)
(0 0 1261.75)
(0 0 974.69)
(0 0 1585.51)
(0 0 1445.58)
(0 0 1363.76)
(0 0 1246.59)
(0 0 1343.79)
(0 0 1098.1)
(0 0 605.389)
(0 0 1236.75)
(0 0 908.885)
(0 0 525.331)
(0 0 973.563)
(0 0 1778.93)
(0 0 1669.08)
(0 0 1541.13)
(0 0 1315.85)
(0 0 845.765)
(0 0 1460.83)
(0 0 1235.11)
(0 0 1479.87)
(0 0 1571.77)
(0 0 1387.64)
(0 0 1086.58)
(0 0 907.32)
(0 0 1526.13)
(0 0 1393.33)
(0 0 1190.15)
(0 0 783.576)
(0 0 1090.01)
(0 0 497.518)
(0 0 1017.18)
(0 0 880.455)
(0 0 474.969)
(0 0 1099.74)
(0 0 1663.29)
(0 0 1540.87)
(0 0 1325.38)
(0 0 878.148)
(0 0 1471.05)
(0 0 1277.75)
(0 0 942.405)
(0 0 369.68)
(0 0 931.396)
(0 0 1465.1)
(0 0 1307.3)
(0 0 1185.58)
(0 0 1059.73)
(0 0 749.516)
(0 0 1435.39)
(0 0 1588.07)
(0 0 1287.33)
(0 0 911.695)
(0 0 1537.29)
(0 0 1798.87)
(0 0 1756.51)
(0 0 1677.62)
(0 0 1632.43)
(0 0 1483.98)
(0 0 1292.81)
(0 0 890.044)
(0 0 1147.55)
(0 0 1808.42)
(0 0 1655.29)
(0 0 1301.78)
(0 0 1904)
(0 0 1767.47)
(0 0 1567.22)
(0 0 1354.34)
(0 0 1106.02)
(0 0 770.398)
(0 0 1018.65)
(0 0 1753.98)
(0 0 1714.01)
(0 0 1656)
(0 0 1641.04)
(0 0 1531.69)
(0 0 1292.07)
(0 0 1190.88)
(0 0 340.613)
(0 0 321.629)
(0 0 546.878)
(0 0 840.485)
(0 0 1090.77)
(0 0 1309.6)
(0 0 1531.89)
(0 0 1733.52)
(0 0 1901.97)
(0 0 2033.64)
(0 0 2094.21)
(0 0 2052.04)
(0 0 1946.79)
(0 0 1839.16)
(0 0 1742.97)
(0 0 1655.39)
(0 0 1564.86)
(0 0 1428.85)
(0 0 1062.56)
(0 0 1838.49)
(0 0 1790.58)
(0 0 1416.44)
(0 0 2111.92)
(0 0 2129.89)
(0 0 2118.42)
(0 0 2008.86)
(0 0 1883.25)
(0 0 1608.18)
(0 0 1303.99)
(0 0 906.351)
(0 0 1567.28)
(0 0 1110.77)
(0 0 1650.62)
(0 0 1408.69)
(0 0 2236.11)
(0 0 2121.53)
(0 0 2089.91)
(0 0 1791.81)
(0 0 1269.28)
(0 0 1843.3)
(0 0 1970.26)
(0 0 2097.36)
(0 0 1965.01)
(0 0 1633.44)
(0 0 1119.96)
(0 0 1718.68)
(0 0 2128.93)
(0 0 2025.54)
(0 0 1899.47)
(0 0 1722.49)
(0 0 1497.79)
(0 0 931.784)
(0 0 1650.62)
(0 0 1318.75)
(0 0 859.036)
(0 0 1495.23)
(0 0 2188.38)
(0 0 2083.04)
(0 0 1975.04)
(0 0 1810.91)
(0 0 1744.94)
(0 0 1468.27)
(0 0 1214.05)
(0 0 1012.4)
(0 0 1591.69)
(0 0 1901.1)
(0 0 1714.57)
(0 0 1592.01)
(0 0 1377.7)
(0 0 918.258)
(0 0 1359.11)
(0 0 1998.95)
(0 0 1647.35)
(0 0 1690.12)
(0 0 1446.15)
(0 0 2299.35)
(0 0 2234.99)
(0 0 2140.48)
(0 0 2143.48)
(0 0 2101.75)
(0 0 1878.06)
(0 0 1496.03)
(0 0 1586.38)
(0 0 2414.37)
(0 0 2356.92)
(0 0 2215.78)
(0 0 2322.78)
(0 0 2323.87)
(0 0 2162.72)
(0 0 2021.23)
(0 0 1838.28)
(0 0 1585.46)
(0 0 1204.44)
(0 0 1857.33)
(0 0 2099.4)
(0 0 1997.05)
(0 0 1873.09)
(0 0 1638.07)
(0 0 1277.58)
(0 0 1129.49)
(0 0 167.093)
(0 0 348.915)
(0 0 614.872)
(0 0 952.286)
(0 0 1240.62)
(0 0 1498.56)
(0 0 1760.48)
(0 0 2002.33)
(0 0 2210.04)
(0 0 2379.39)
(0 0 2475.12)
(0 0 2469.96)
(0 0 2406.05)
(0 0 2343.47)
(0 0 2298.57)
(0 0 2271.41)
(0 0 2257.24)
(0 0 2233.72)
(0 0 2101.12)
(0 0 1787.95)
(0 0 2473.72)
(0 0 2373.49)
(0 0 2305.48)
(0 0 1934.07)
(0 0 2625.61)
(0 0 2635.54)
(0 0 2407.75)
(0 0 1992.37)
(0 0 1354.16)
(0 0 1711.78)
(0 0 1946.02)
(0 0 2597.86)
(0 0 2587.62)
(0 0 2394.11)
(0 0 2443.86)
(0 0 2022.24)
(0 0 2866.49)
(0 0 2711.65)
(0 0 2427.93)
(0 0 2056.69)
(0 0 2724.44)
(0 0 2604.2)
(0 0 2406.19)
(0 0 2198.14)
(0 0 1830.65)
(0 0 2557.07)
(0 0 2471.05)
(0 0 2387.1)
(0 0 2575.41)
(0 0 2404.11)
(0 0 2056.83)
(0 0 1568.04)
(0 0 2377.54)
(0 0 2074.38)
(0 0 1688.08)
(0 0 2461.99)
(0 0 2355.6)
(0 0 2152.7)
(0 0 2542.19)
(0 0 2316.89)
(0 0 1931.72)
(0 0 1357.95)
(0 0 1841.84)
(0 0 2399.03)
(0 0 2274.59)
(0 0 1991.73)
(0 0 1638.91)
(0 0 2217.91)
(0 0 2149.1)
(0 0 1928.78)
(0 0 1604.54)
(0 0 2429.33)
(0 0 2349.35)
(0 0 2118.57)
(0 0 1857.27)
(0 0 2592.06)
(0 0 2381.98)
(0 0 2090.73)
(0 0 2837.9)
(0 0 2792.56)
(0 0 2631.79)
(0 0 2493.71)
(0 0 2169.12)
(0 0 3142.56)
(0 0 3084.36)
(0 0 3064.48)
(0 0 2972.32)
(0 0 2808.57)
(0 0 2633.93)
(0 0 2491.19)
(0 0 2340.98)
(0 0 2260.62)
(0 0 2027.82)
(0 0 1711.26)
(0 0 2340.64)
(0 0 2217.05)
(0 0 2003.85)
(0 0 1685.79)
(0 0 1264.97)
(0 0 1097.66)
(0 0 55.363)
(0 0 365.878)
(0 0 661.841)
(0 0 1033.87)
(0 0 1350.37)
(0 0 1637.86)
(0 0 1931.74)
(0 0 2207.9)
(0 0 2451.9)
(0 0 2661.93)
(0 0 2799.44)
(0 0 2837.37)
(0 0 2823.98)
(0 0 2825.22)
(0 0 2856.01)
(0 0 2910.49)
(0 0 2985.92)
(0 0 3068.98)
(0 0 3091.38)
(0 0 3007.28)
(0 0 2935.58)
(0 0 2615.56)
(0 0 2324.11)
(0 0 2928.61)
(0 0 2629.35)
(0 0 3432.92)
(0 0 3357.76)
(0 0 3253.88)
(0 0 3146.98)
(0 0 3067.49)
(0 0 2714.13)
(0 0 3594.36)
(0 0 3501.88)
(0 0 3363.96)
(0 0 3146.94)
(0 0 2764.02)
(0 0 3708.46)
(0 0 3650.05)
(0 0 3562.2)
(0 0 3419.37)
(0 0 3311.14)
(0 0 3043.58)
(0 0 2594.57)
(0 0 3329.94)
(0 0 3135.84)
(0 0 2892.97)
(0 0 2298.85)
(0 0 2827.19)
(0 0 3328.46)
(0 0 3198.5)
(0 0 2947.34)
(0 0 2489.84)
(0 0 3292)
(0 0 3170.76)
(0 0 3048.82)
(0 0 2786.33)
(0 0 2120.28)
(0 0 2499.45)
(0 0 3264.07)
(0 0 3089.36)
(0 0 2846.14)
(0 0 2447.08)
(0 0 3290.34)
(0 0 3150.85)
(0 0 2820.93)
(0 0 2270.02)
(0 0 2916.83)
(0 0 2962.13)
(0 0 2909.68)
(0 0 2576.27)
(0 0 1978.71)
(0 0 2345.53)
(0 0 2849.43)
(0 0 3306.13)
(0 0 3134.28)
(0 0 2926.95)
(0 0 2428.13)
(0 0 3151.36)
(0 0 3474.44)
(0 0 3406.27)
(0 0 3274.79)
(0 0 3029)
(0 0 2665.54)
(0 0 3672.64)
(0 0 3599.96)
(0 0 3567.48)
(0 0 3403.9)
(0 0 3186.57)
(0 0 2938.39)
(0 0 2626.25)
(0 0 2072.13)
(0 0 2603.78)
(0 0 2690.15)
(0 0 2458.8)
(0 0 2235.34)
(0 0 2354.9)
(0 0 2073.29)
(0 0 1710.05)
(0 0 1266.9)
(0 0 1092.47)
(0 0 -22.4501)
(0 0 369.548)
(0 0 682.216)
(0 0 1079.01)
(0 0 1412.74)
(0 0 1718.17)
(0 0 2033.09)
(0 0 2333.6)
(0 0 2606.7)
(0 0 2857.13)
(0 0 3041.59)
(0 0 3135.2)
(0 0 3179.05)
(0 0 3233.31)
(0 0 3306.88)
(0 0 3413.55)
(0 0 3555.88)
(0 0 3711.89)
(0 0 3815.6)
(0 0 3834.91)
(0 0 3845.4)
(0 0 3871.97)
(0 0 3898.99)
(0 0 3967.8)
(0 0 4022.54)
(0 0 4184.63)
(0 0 4202.87)
(0 0 4234.91)
(0 0 4267.17)
(0 0 4285.76)
(0 0 4266.52)
(0 0 4345.4)
(0 0 4297.6)
(0 0 4272.15)
(0 0 4243.81)
(0 0 4270.1)
(0 0 4381.05)
(0 0 4361.44)
(0 0 4337.28)
(0 0 4246.04)
(0 0 4160.94)
(0 0 4131.34)
(0 0 4136.25)
(0 0 4217.12)
(0 0 4127.39)
(0 0 4020.05)
(0 0 3950.76)
(0 0 4007.51)
(0 0 4060.7)
(0 0 4166.28)
(0 0 4166.71)
(0 0 4139.01)
(0 0 4159.93)
(0 0 4122.4)
(0 0 4105.85)
(0 0 4016.91)
(0 0 3954.67)
(0 0 4029.23)
(0 0 4063.01)
(0 0 4080.82)
(0 0 4094.66)
(0 0 4121.49)
(0 0 4166.99)
(0 0 4038.34)
(0 0 3938.03)
(0 0 3859.59)
(0 0 3875.37)
(0 0 3769.38)
(0 0 3936.6)
(0 0 3935.2)
(0 0 3960.14)
(0 0 4029.84)
(0 0 4106.94)
(0 0 4143.05)
(0 0 4038.13)
(0 0 3938.35)
(0 0 3898.5)
(0 0 3920.44)
(0 0 4016.27)
(0 0 3956.94)
(0 0 3836.95)
(0 0 3617.35)
(0 0 3175.67)
(0 0 4041.73)
(0 0 3917.2)
(0 0 3915.48)
(0 0 3816.9)
(0 0 3673.15)
(0 0 3530.98)
(0 0 3418.35)
(0 0 3311.02)
(0 0 3298.31)
(0 0 3143.59)
(0 0 2911.15)
(0 0 2664.09)
(0 0 2444.17)
(0 0 2115.23)
(0 0 1729.76)
(0 0 1282.85)
(0 0 1091.22)
(0 0 -77.7586)
(0 0 360.646)
(0 0 673.574)
(0 0 1083.91)
(0 0 1424.16)
(0 0 1733.82)
(0 0 2052.51)
(0 0 2358.55)
(0 0 2642.84)
(0 0 2920.06)
(0 0 3154.45)
(0 0 3318.78)
(0 0 3401.03)
(0 0 3482.64)
(0 0 3588.05)
(0 0 3731.43)
(0 0 3910.26)
(0 0 4102.2)
(0 0 4249.89)
(0 0 4333.36)
(0 0 4411.09)
(0 0 4505.66)
(0 0 4560.24)
(0 0 4581.06)
(0 0 4610.15)
(0 0 4669.62)
(0 0 4717.58)
(0 0 4776.06)
(0 0 4827.19)
(0 0 4850.46)
(0 0 4829.56)
(0 0 4808.02)
(0 0 4797.55)
(0 0 4795.75)
(0 0 4799.46)
(0 0 4808.36)
(0 0 4796.45)
(0 0 4798.99)
(0 0 4801.55)
(0 0 4755.34)
(0 0 4723.97)
(0 0 4744.98)
(0 0 4771.81)
(0 0 4773.97)
(0 0 4741.31)
(0 0 4704.75)
(0 0 4700.7)
(0 0 4717.76)
(0 0 4735.32)
(0 0 4776.07)
(0 0 4810.85)
(0 0 4789.54)
(0 0 4728.13)
(0 0 4730.75)
(0 0 4752.33)
(0 0 4727.15)
(0 0 4721.68)
(0 0 4716.84)
(0 0 4687.66)
(0 0 4703.95)
(0 0 4750.88)
(0 0 4765.49)
(0 0 4713.83)
(0 0 4643.67)
(0 0 4617.03)
(0 0 4606.34)
(0 0 4593.14)
(0 0 4584.23)
(0 0 4668.23)
(0 0 4738.07)
(0 0 4756.19)
(0 0 4706.26)
(0 0 4675.44)
(0 0 4657.32)
(0 0 4603.06)
(0 0 4568.37)
(0 0 4580.01)
(0 0 4562.32)
(0 0 4527.63)
(0 0 4499.46)
(0 0 4491.84)
(0 0 4476.9)
(0 0 4387.16)
(0 0 4340.64)
(0 0 4307.1)
(0 0 4263.84)
(0 0 4158.65)
(0 0 4041.08)
(0 0 3944.18)
(0 0 3863.97)
(0 0 3754.1)
(0 0 3592.37)
(0 0 3369.52)
(0 0 3104.83)
(0 0 2805.07)
(0 0 2490.16)
(0 0 2136.81)
(0 0 1739.65)
(0 0 1288.9)
(0 0 1085.78)
(0 0 -101.806)
(0 0 340.8)
(0 0 626.975)
(0 0 1038.03)
(0 0 1381.24)
(0 0 1679.57)
(0 0 1978.78)
(0 0 2258.46)
(0 0 2503.5)
(0 0 2748.42)
(0 0 2989.99)
(0 0 3306.41)
(0 0 3445.12)
(0 0 3568.03)
(0 0 3689.3)
(0 0 3847.18)