/*--------------------------------*- C++ -*----------------------------------*\
| =========                 |                                                 |
| \\      /  F ield         | foam-extend: Open Source CFD                    |
|  \\    /   O peration     | Version:     5.0                                |
|   \\  /    A nd           | Web:         http://www.foam-extend.org         |
|    \\/     M anipulation  |                                                 |
\*---------------------------------------------------------------------------*/
FoamFile
{
    version     2.0;
    format      ascii;
    class       volScalarField;
    location    "0.05";
    object      p;
}
// * * * * * * * * * * * * * * * * * * * * * * * * * * * * * * * * * * * * * //

dimensions      [1 -1 -2 0 0 0 0];

internalField   nonuniform List<scalar> 
4000
(
88180.1
89956.2
91738.4
93608.2
95744.5
97805.9
99914
101406
102249
103524
104014
103700
104919
106459
108888
112969
115896
118630
121212
123299
122070
119299
119629
120569
121818
122626
121708
119478
116120
114967
116512
117487
117555
118083
118746
118783
118163
115355
111795
111152
112611
113066
111230
108943
106763
104629
103861
104669
104888
101580
97386
96317.7
96727.3
97025.7
96332.3
94714.8
93739.3
93062.1
92589
92719.5
91532.7
88143.9
84452.2
82986.3
83497.2
83883
83492.1
83209.7
82938.8
82458.6
81857.6
79648.7
75697.1
73486
74350.3
76164.3
76427.5
75427.7
73633.9
71616.8
69633.3
68065.4
68362.7
68081
66391.6
64950
62342.4
57514.4
52852.3
48980.3
45487.9
42097.2
39224.2
36100.4
32107.3
27965.7
22642.6
15672.4
9588.9
3777.76
88080.9
89888
91665.1
93531.7
95666.3
97760.8
99851.3
101355
102167
103509
104072
103725
104973
106478
108868
113027
115868
118581
121143
123303
122110
119217
119608
120534
121767
122588
121718
119558
116122
114955
116554
117486
117523
118050
118725
118748
118197
115374
111773
111137
112587
113079
111227
108967
106842
104651
103805
104628
104940
101619
97367.5
96356.1
96734.3
97051
96368.2
94656.2
93700
93047.1
92520.1
92688.8
91596.6
88203.2
84446.2
82997.1
83554.6
83884.3
83451.6
83157.8
82922.1
82422.6
81879.3
79717.3
75698
73473.6
74336.9
76141.3
76370.2
75348.6
73647.8
71637.7
69657.5
68029.9
68316.8
68020.8
66305.6
64887.2
62340.8
57504.1
52861.3
49036.7
45546.5
42104.4
39214.4
36160.3
32098.2
27947.9
22667
15688.1
9571.36
3768.38
87998.7
89860.9
91640.8
93486.7
95566
97662.5
99929.3
101303
102080
103637
104202
103656
104772
106453
108894
112949
115851
118670
121087
123312
122235
119212
119648
120456
121583
122567
121904
119577
116075
114968
116567
117504
117524
118012
118695
118721
118249
115439
111781
111070
112569
113167
111315
108909
106732
104649
103832
104584
104979
101664
97388.8
96326.9
96744.6
97051.7
96292.6
94598.5
93761.5
93096.9
92452.4
92659.9
91738.4
88203.1
84340.4
83046.2
83600.1
83777.9
83324.2
83137.6
83014.3
82434
81911
79717.3
75674.8
73493.7
74299.6
76021.4
76248.6
75343.2
73739.5
71699.8
69665.4
67937.5
68157.9
67983
66323.1
64890.8
62462.1
57574.1
52883.4
49084.2
45554.4
41985.7
39147.8
36223.7
32128.6
27977
22742.8
15716.9
9460.65
3721.15
88044.8
89929.6
91712.8
93524.9
95541.8
97683.1
100119
101319
101987
103771
104135
103533
104572
106409
109042
112883
115822
118581
121033
123390
122282
119287
119812
120250
121409
122682
122131
119556
115943
115067
116572
117412
117497
118124
118694
118600
118334
115509
111673
111112
112614
113205
111334
108754
106430
104687
103982
104584
104953
101683
97465.5
96207.4
96670.7
96964.7
96093.9
94612.1
93926.1
93218.3
92397.1
92681.2
91799.1
88063
84242.2
83151.5
83682.4
83551.8
83183
83313.4
83131
82446.7
81801.5
79606.8
75712.7
73592.2
74276.3
75835.8
76123.6
75444.7
73800.3
71843.1
69552.3
67715.6
68029.2
68009.6
66501.9
64975.1
62589
57670.7
52974.2
49127.7
45502.4
41818.2
39075.8
36323
32231.3
28045.5
22868.5
15711.7
9232.25
3513.7
88277.6
90104.1
91885.7
93662.2
95612.2
97770.1
100223
101419
102051
103774
104058
103421
104438
106613
109165
112800
115618
118164
121111
123562
122407
119411
119687
120118
121382
122861
122280
119394
115833
115199
116472
117313
117631
118278
118560
118481
118468
115440
111563
111242
112765
113294
111265
108391
106145
104706
104190
104652
104877
101687
97560.6
96086.8
96455.7
96718.9
95918.4
94693.5
94213.2
93317
92311
92862
91763.4
87797.7
84178.6
83317
83853.7
83430.7
83062.6
83372.7
83210.6
82463.3
81651.9
79519.4
75767.6
73733.5
74224.5
75637.4
75972.3
75414.1
73949.3
72209.1
69475.8
67265.3
67903.2
68284.6
66734.8
64930.4
62796.9
57787.8
52922.7
49134
45386.6
41744.5
39047.2
36473
32341.8
28084.6
22970.4
15707
8763.33
3129.67
88728.1
90417.7
92192.2
93905.1
95741.5
97898.5
100237
101572
102113
103779
104069
103320
104506
106897
109232
112496
115460
118036
121133
123531
122667
119607
119296
119927
121415
123249
122355
119039
115776
115393
116433
117134
117782
118381
118437
118472
118508
115268
111438
111426
112865
113466
111308
107968
105892
104795
104370
104736
104880
101756
97664.1
96039.5
96123.8
96433.1
95869.4
94846.7
94677.5
93478.9
92144.4
92899.1
91668.9
87499.3
84078
83588.3
84197
83415.9
82872.1
83348.4
83325.9
82427
81553.1
79434.9
75856.8
73882.3
74197.7
75439.5
75905.6
75313.6
74090.9
72655.2
69422.9
66951.5
67856.8
68746.6
66972.3
64876.4
62894.9
57836.1
52747.1
49057.5
45346.7
41716
39136.8
36646.4
32419.9
28071
23111.9
15640.3
8102.06
2649.17
89371.5
90849.3
92645.8
94288.8
95949.9
98087
100344
101683
102171
103757
104133
103353
104600
106969
109321
112370
115356
118035
121113
123283
122702
120002
119153
119621
121458
123444
122256
118644
115820
115757
116495
116973
117754
118412
118401
118471
118523
115115
111316
111452
112926
113744
111415
107601
105634
104935
104556
104803
104892
101788
97868.9
96107.7
95918.5
96204.1
95878.8
95042.3
95034.7
93641.7
92062.2
92729.1
91508.6
87245.4
83945
83841.2
84596.2
83545.1
82765.7
83287.9
83438.3
82376.4
81374.3
79388.8
75893.4
74123.2
74250.2
75184.3
75910.2
75422.4
74234.9
72899.2
69326.7
66771.2
67826.1
69133.2
67205.8
64999.9
62939.4
57754.8
52485.4
48942.9
45392.9
41728.2
39291.4
36877.2
32504.5
27951.5
23251.6
15583.8
7329.69
2165.39
90144.8
91306.1
93025.2
94588.4
96208.4
98344.3
100390
101796
102313
103725
104203
103548
104694
106855
109442
112503
115317
118056
121130
123072
122361
120297
119166
119328
121524
123385
122045
118361
115931
116122
116577
116913
117748
118327
118369
118575
118498
114992
111263
111423
112979
113932
111418
107242
105424
105132
104810
104933
104818
101802
98086.9
96158.4
95852.1
96105.9
95975.1
95236.3
95112.9
93758.4
92116.1
92442.4
91286.3
87010
83784.9
84021.8
84924.7
83735.3
82779.7
83317.4
83483.6
82274.2
81176.9
79267.7
75880
74393.2
74460.4
75023.7
75860.8
75528.4
74562.1
72993.7
69176.1
66660.6
67815.7
69372.9
67441.1
65134.1
62951.5
57606.7
52295
48892.5
45453.7
41827
39513
37035.4
32551.5
27898.4
23354
15508
6543.92
1690.97
90977.4
91786.5
93453.9
94956
96491.6
98580.4
100577
101860
102460
103721
104272
103875
104776
106765
109369
112710
115584
118102
121179
122903
121996
120164
119081
119297
121641
123173
121721
118220
116050
116275
116534
116966
117852
118363
118361
118630
118378
114867
111309
111464
113046
113934
111260
106870
105262
105296
105092
105066
104759
101848
98075
96198.4
95915.8
96106.6
96133.8
95387.6
94998
93818.5
92274.6
92209
90870.5
86685.3
83723
84078.9
85117.6
83978.5
82879.8
83456.2
83536.1
82298.5
81054.4
78945.3
75777.1
74702.6
74698.3
74999.8
75724.1
75680.6
74849.5
73027.8
69077.7
66554.4
67862.9
69524.3
67728.7
65258.5
62855.9
57424.7
52166.6
48930.1
45489.9
41811.7
39726.5
37185.6
32558.9
27926
23425.1
15354.9
5688.21
1196.04
91821.1
92269.8
93868.8
95307.1
96773
98837.8
100801
101965
102610
103818
104351
104058
104883
106812
109293
112818
115877
118286
121217
122640
121552
119856
118988
119546
121859
123017
121265
117950
115960
116330
116549
116985
118001
118546
118416
118677
118168
114575
111379
111643
113188
113880
111010
106576
105164
105495
105416
105202
104644
101704
97848.1
96279.8
96082.1
96149.6
96230.9
95504.4
95039.8
93895.4
92448.9
92023
90416.1
86320.1
83729.4
84167.5
85153.4
84142.9
83108.6
83646.5
83502.6
82204.4
81022.1
78690.7
75686.1
74846.8
74920.2
75111.7
75651.4
75864.3
75073.4
72889.2
68918.6
66548.5
67953.1
69603.7
67952.8
65408.1
62694.2
57260.9
52104.7
48918.6
45414.5
41905.4
39920.7
37275.3
32561.6
27966.7
23428.2
15162.2
4979.15
739.466
92639.7
92725.2
94230.9
95614.2
97071.2
99113.2
101006
102092
102813
103905
104351
104154
104939
106894
109386
112895
116164
118463
121133
122416
121126
119529
119063
119844
121992
122894
120935
117628
115767
116322
116637
117070
118109
118723
118553
118732
117894
114218
111472
111891
113421
113835
110711
106365
105122
105612
105743
105424
104488
101387
97585.4
96409.7
96288
96173.2
96232.7
95613.8
95062.9
93940
92582.4
91929
90011.9
85973.3
83811.9
84309.8
85061.9
84239.8
83436.1
83860.5
83445.6
82017
80921.7
78563.3
75634.4
74849.9
75050.5
75342.2
75688
76037.1
75240.4
72737.3
68758.8
66569.7
68096.2
69718.2
68075.7
65475.9
62510.6
57115.9
52085.4
48899.6
45370.5
41980.5
40049.6
37284.3
32543.9
27985.4
23327.5
14907
4255.79
164.23
93413.2
93144
94535
95884.6
97347.1
99397.3
101213
102259
103004
103954
104290
104175
105026
106899
109401
113014
116306
118464
121033
122242
120781
119238
119161
120114
122051
122799
120725
117390
115660
116349
116734
117172
118253
118915
118650
118754
117649
113905
111590
112198
113660
113764
110420
106213
105138
105750
105991
105498
104363
101081
97371.6
96551.7
96470.9
96165.3
96218.5
95722.7
95140.2
93961.5
92670.4
91808.7
89648.1
85709
83942.7
84506.4
85041.1
84290.3
83710.2
84033.8
83329.8
81789.4
80827.3
78490.9
75579.6
74792.2
75196.3
75544.4
75772.7
76128
75336.8
72634.5
68611.6
66601.6
68323.4
69854.5
68139.2
65443.2
62306
56972.5
52055.3
48849.8
45300
42016.4
40122.4
37260.1
32543.9
27950.7
23051.5
14664.1
3405.65
-583.391
94127.5
93539.1
94792.2
96130.6
97641.3
99712.7
101431
102412
103141
103948
104205
104173
105012
106887
109407
113074
116351
118394
120909
122075
120486
119053
119237
120304
122077
122699
120519
117148
115651
116413
116856
117318
118433
119079
118684
118698
117432
113731
111798
112516
113813
113633
110162
106136
105223
105948
106154
105520
104263
100822
97250
96707.4
96630
96114.4
96200.8
95857.1
95191.4
93939.1
92699.4
91633.8
89319.2
85593.6
84135.1
84714.7
85061.1
84343.8
83922.2
84135.8
83138.6
81525.2
80747.2
78498.9
75563
74832.1
75413
75729.7
75792.7
76127.3
75377.9
72589.1
68498.8
66639.4
68566.8
69998
68148.7
65336.8
62086.2
56866.1
52026.5
48748.4
45193
42002
40146.3
37238.9
32448.5
27841.3
22621.6
14181
2477.39
-1391.63
94756.6
93887.3
95055.4
96367
97900.4
99934.7
101622
102568
103251
103915
104110
104148
104998
106830
109321
113037
116341
118275
120770
121867
120218
118880
119291
120418
122078
122596
120273
117016
115746
116493
117023
117549
118605
119182
118662
118585
117275
113697
112074
112847
113872
113430
109978
106144
105345
106158
106267
105503
104133
100618
97063.1
96805.2
96813.9
96124.1
96165.5
95975.5
95212.2
93888.1
92711.5
91425.1
89053.3
85608.8
84392.3
84913.8
85046.8
84378.8
84075.2
84215.1
82936.1
81236.4
80672.6
78625.8
75592.7
74886.3
75651.1
75940.1
75749.6
76058.4
75425.7
72611.9
68414.5
66655
68722
70185.4
68148.4
65148
61870.7
56866.4
51977.5
48612.1
45096
41897.7
40082
37182
32325.7
27582.3
22130.8
13633.7
1471.6
-2173.14
95283.3
94174.9
95266.8
96561.5
98127.4
100166
101808
102711
103333
103868
104040
104158
104982
106708
109115
112894
116320
118193
120573
121632
119995
118728
119343
120442
122024
122523
119974
116985
115855
116572
117231
117947
118740
119114
118560
118446
117249
113649
112386
113193
113841
113119
109886
106329
105428
106267
106328
105474
104049
100425
96930.6
96814.8
97072
96305
96042.6
95911.1
95191.6
93863.6
92705.7
91222.5
88766.4
85730.8
84780
85019.4
84870
84349.3
84197.8
84325.1
82814.5
81007.8
80564.9
78741.8
75763.1
74888.6
75717.6
76172.1
75681.2
75969.9
75486.5
72775
68497.2
66505.5
68643.2
70466.4
68191
64852.2
61681.4
56936.1
51987.6
48454.5
45008.8
41883.5
39916.8
36901.8
32079.6
27201.6
21544.5
13081.4
598.639
-2853.07
95694.8
94399
95419.8
96705
98322.1
100393
101978
102805
103367
103803
103977
104183
104966
106552
108824
112653
116338
118239
120251
121357
119738
118548
119372
120390
121938
122369
119828
117195
116175
116672
117298
118387
118966
118990
118372
118290
117195
113819
112725
113327
113870
112814
109766
106587
105631
106299
106102
105426
104070
100413
96867.2
96713
97366.2
96591.1
95976.4
95684.6
94880.6
93805.4
92822.6
91090.4
88513.2
85942.6
85289.6
85138.6
84546
84116
84292.5
84462.4
82887.3
80863.6
80323.2
78705.4
76049.7
75003.3
75628.1
76220.9
75554.6
75878.1
75641.5
73031.3
68766.3
66451.2
68423.5
70631.6
68288.3
64478.5
61394.8
57018.2
51972.1
48274.5
45017.3
42062.5
39744.9
36327.5
31603.2
26727.4
20985.4
12595.6
-55.9739
-3394.51
95985.8
94560.5
95520.4
96814
98500.9
100594
102091
102844
103375
103738
103923
104213
104930
106368
108511
112271
116309
118460
119931
120896
119665
118551
119311
120169
121734
122300
120013
117507
116646
116746
117260
118700
119163
118960
118052
118162
117196
114203
113202
113465
113834
112367
109666
106949
106003
106161
105562
105323
104209
100596
96922
96502.5
97583.2
96905.7
95988.2
95395.7
94282.9
93662.7
93012.3
91093.1
88409.2
86180.7
85786.6
85341.5
84270.9
83687.2
84265.3
84661.2
83124.6
80897.1
80033.5
78449.9
76286.5
75258.4
75563.2
76044.7
75377.8
75920.3
75896.2
73147.6
69101.6
66384
68302.8
70716.7
68058.9
64231.6
61179.7
56933.3
51932.9
48198.3
45032.9
42330.9
39608.1
35749
31044.2
26081.1
20465.8
12236.8
-483.884
-3779.74
96156.7
94656.7
95574.7
96900.3
98662.4
100735
102132
102844
103367
103673
103882
104246
104879
106174
108279
111732
116079
118709
119806
120520
119644
118558
119351
120242
121359
121993
120300
118125
117128
116883
117377
118708
119039
119059
118083
118098
116899
114527
113962
113655
113615
111961
109528
107531
106456
105931
105283
105168
104205
100871
97154.5
96189.2
97550.9
97387.9
96019.6
95040.8
93944.7
93483.7
93021.3
91243.9
88495.8
86536.4
86136
85317.4
84064.6
83543.5
84136.4
84646.8
83359.9
81125.5
79827.5
77981.2
76380
75725.4
75676
75817.9
75379.2
75838.4
75845.2
73227.8
69406.1
66515.8
68137
70427.6
67733.4
63948.1
61060.3
56922.6
52053
48222.1
44869.6
42450.6
39632.1
35220.2
30548.8
25509.5
19885.1
11978.8
-690.028
-4000.7
96232.3
94691.2
95586.6
96965.7
98791.5
100811
102113
102806
103341
103596
103853
104266
104825
105996
108034
111274
115682
118685
119652
120241
119609
118831
119528
120391
121363
121483
120322
118811
117620
117315
117730
118366
118634
119212
118538
118123
116572
114828
114468
113789
113492
111983
109429
107807
106895
106082
105368
104660
103767
101091
97597.8
96160.9
97319.1
97557.1
96010.9
94990.4
93929.3
93049.2
92607.9
91434.7
88905
86907.5
86250.6
85297.8
84211.1
83672.9
83672.3
84264.8
83514.8
81254.1
79711.6
77828.5
76372.2
75962.4
75844
76013.2
75679.6
75410.6
75316.2
73243.6
69602.7
66855.8
67974.3
69911.1
67500.6
63615
60963.4
56959.2
52208
48277.6
44911.2
42597.3
39466.9
34938.8
30142.2
25057.4
19459.8
11745.8
-688.242
-4060.65
96280.6
94709.8
95579.9
97008.6
98890
100848
102052
102731
103293
103483
103803
104243
104751
105877
107855
110995
115132
118250
119348
119913
119561
119084
119714
120550
121411
121450
120486
119148
118030
117719
118035
118471
118347
119034
118921
118150
116741
115192
114587
113872
113410
112016
109723
108128
107095
106197
105340
104479
103376
100899
97857.8
96480.4
97209.2
97285.8
95894.3
94917.5
93928.6
93010.2
92311.9
91302
89249.5
87233.2
86381.1
85463.1
84441.2
83707.6
83548.3
83892.3
83237
81171.2
79543.7
77620.2
76312.9
76229.5
76291.4
76336.9
75833.9
75369
74940.5
72963.1
69656.9
67386.1
67878.3
69181.5
67190.7
63690.6
61082.5
56740.4
52294.3
48211.1
44902.4
42830.8
39426.2
34812.1
29919.3
24814.9
19285.5
11736.9
-485.636
-3981.47
96302.8
94722.7
95566.3
97013.8
98989.4
100912
101966
102644
103232
103295
103722
104159
104598
105847
107878
110930
114479
117343
118720
119482
119445
119244
119877
120691
121449
121494
120660
119442
118436
118096
118302
118642
118543
118988
118868
118121
116922
115489
114717
113995
113377
112034
109997
108402
107297
106350
105385
104334
102942
100614
98038.9
96768.9
97100.6
96960.4
95770.4
94840.2
93941.2
93056.6
92044.8
91201.3
89570.1
87553.5
86581.9
85692.7
84700.2
83905.9
83483.1
83329.8
82811.9
81013.7
79386.9
77353.3
76216.8
76519.7
76824.9
76699.8
75961.4
75419.2
74711.8
72693.4
69638.8
67853
68263
68830.3
66606.6
63678.1
61287
56959.7
52527.9
47769.6
44714.4
43164.9
39556.3
34845
29895.1
24802.8
19357.9
11957
-151.667
-3791.56
96267.8
94705.5
95531.1
96984.7
99074.6
100981
101873
102536
103155
103065
103753
104141
104289
105578
107699
110737
113753
116419
118094
119083
119311
119354
120009
120801
121479
121531
120811
119721
118808
118441
118553
118788
118719
118950
118794
118152
117089
115747
114889
114130
113377
112056
110214
108655
107504
106496
105427
104186
102537
100324
98160
97004.5
96999
96671.1
95640.4
94763.2
93947.8
93122.3
92132.7
91128.7
89594.3
87784.8
86789.3
85910.1
84931.6
84095.1
83504
83047
82260.4
80660.5
79215.3
77323.1
76336.9
76735
77121.6
76964.3
76082.6
75379.1
74539.1
72622.4
69589.9
68135.9
68622
68613
66545.7
63810.7
61225.7
57168.1
52787.9
47671.9
44608
43335
39792.5
35006.1
30028.7
24969.7
19624.6
12369.9
319.802
-3478.92
96140.5
94729
95420.3
96927.5
99095
100918
101733
102407
103080
103027
103754
103805
103798
105113
107418
110528
113066
115589
117510
118713
119169
119419
120098
120869
121487
121546
120928
119962
119128
118748
118776
118911
118834
118917
118746
118192
117230
115977
115066
114261
113399
112091
110400
108889
107701
106631
105468
104057
102164
100030
98235.2
97195.6
96914.5
96428.4
95509.9
94689.7
93951
93188.1
92229.9
91102.7
89601.2
88009.9
87006.3
86116.9
85140.8
84253.8
83512.3
82782.7
81784.5
80345.1
79116.2
77516.9
76653.4
76925.7
77247.3
77053.3
76159.3
75343
74418.7
72607.4
69963
68532.9
68615
68332.5
66514.5
63940.8
61249.6
57426.2
53122.4
48008.3
44568.5
43309.9
40144.7
35285.7
30313
25309.6
20080.3
12988.6
1041.17
-2994.65
95927.8
94707.1
95357.1
96797.9
98936.8
100813
101540
102239
103031
102987
103672
103703
103352
104262
107024
110357
112489
114850
116954
118343
118996
119421
120128
120883
121456
121527
121002
120154
119393
119007
118963
119012
118913
118891
118705
118219
117339
116170
115228
114380
113435
112141
110564
109101
107886
106762
105523
103959
101822
99738
98277.4
97342.6
96845.6
96232
95386.6
94621.2
93949
93241.6
92294.3
91083.1
89626.9
88206.9
87208.3
86304.5
85328.5
84393.8
83511.6
82540.9
81394.2
80100
79059.9
77775.7
77002.9
77095.3
77307.8
77065.6
76198.1
75326.1
74345.3
72623.7
70305.5
68892.2
68647.6
68177.3
66515.1
64097.9
61386.4
57739.4
53543.9
48724.3
44617.8
43131.3
40593.4
35679.7
30754.4
25842.5
20748.4
13837.7
2095.16
-2304.55
95642.2
94627.6
95338.1
96675.4
98669.7
100617
101291
102045
102963
102951
103627
103626
102966
103607
106515
109973
111950
114164
116407
117953
118777
119354
120093
120841
121386
121472
121033
120293
119601
119215
119111
119089
118965
118867
118668
118228
117418
116323
115367
114482
113481
112200
110710
109290
108058
106894
105598
103903
101510
99451.8
98298.4
97447.8
96790.1
96078.1
95275.4
94556.4
93937.1
93276.9
92338.2
91076.3
89663.4
88367.5
87377.5
86461.9
85489.2
84517.9
83519.1
82358.4
81108.2
79925.7
79026.7
78002.3
77303.9
77238.8
77327.8
77051.6
76228.2
75330.6
74314.3
72675
70590
69207.1
68739.3
68115.2
66560.8
64284.7
61594.4
58093
54021.8
49451.2
44984.8
43181.9
40936.5
36128.6
31307.9
26515.4
21572.8
14879.5
3500.34
-1395.85
95270
94498.4
95292.5
96491.1
98422.5
100421
101090
101821
102799
102977
103600
103473
102740
103104
105759
109386
111443
113541
115869
117541
118514
119222
119997
120747
121277
121384
121021
120377
119749
119367
119216
119139
118992
118842
118628
118219
117466
116437
115475
114561
113527
112263
110839
109455
108213
107025
105697
103900
101231
99173.8
98304.8
97514.6
96745.8
95961
95180
94494.5
93912.4
93290.8
92365
91081.3
89707.2
88491.1
87504.9
86582.2
85617
84624.6
83542.1
82253.7
80931.1
79816
79007.3
78165.8
77530.8
77357.6
77329.5
77021.7
76247.8
75346.7
74312
72755
70843
69486.6
68861.4
68119
66638.3
64483.9
61839.3
58466.8
54527.4
50150.8
45633.7
43437.6
41164.3
36596.6
31919.6
27258.6
22470.4
16036.1
5252.27
-263.168
94833.9
94329.3
95205.3
96340.4
98169.5
100199
100971
101635
102619
102986
103565
103306
102534
102710
105026
108685
110974
112981
115351
117116
118215
119034
119850
120608
121135
121266
120970
120409
119839
119465
119281
119165
118999
118816
118586
118195
117488
116513
115552
114617
113566
112321
110947
109591
108346
107149
105816
103954
100993
98908.1
98298.1
97545.5
96708.5
95876.2
95105
94437.1
93876.1
93283.8
92376.1
91093.8
89752.4
88578.1
87588.1
86661.6
85707.4
84709.8
83579.7
82216.6
80851.6
79771.5
79002.1
78271.4
77687.3
77447.4
77327.1
76979.3
76247.1
75362.9
74325.5
72847.4
71064.8
69735.3
69002.1
68166.9
66725.6
64667.1
62085.8
58831.3
55024.4
50811.4
46439.2
43822.7
41317.3
37045.5
32524.2
27986.9
23338
17196.6
7315.92
1085.62
94374.2
94102
95094.7
96200.2
97908.2
99932.6
100846
101495
102390
102910
103592
103234
102298
102342
104438
107980
110451
112507
114901
116727
117928
118838
119698
120469
121001
121152
120905
120406
119883
119517
119315
119175
118996
118791
118546
118161
117486
116554
115597
114647
113590
112366
111029
109692
108446
107255
105946
104064
100820
98672.4
98273.2
97540.4
96675
95819.5
95052.6
94389.3
93834.2
93259.5
92371.8
91105.9
89790.1
88631.6
87632.3
86701.5
85758
84766.8
83621.4
82229.4
80846
79775.9
79010.4
78331.6
77779.7
77497.2
77319.6
76946.3
76242.5
75376.5
74340.6
72917.1
71234.6
69933
69132.1
68235.8
66809.3
64816.2
62293.2
59128.8
55427.7
51347.6
47140.4
44227.3
41500.7
37450.1
33063.8
28628
24084.9
18239
9540.32
2568.64
93885.4
93836.9
94936.8
96035.2
97638
99634.4
100696
101339
102154
102795
103617
103252
102146
102015
103860
107259
109818
112049
114445
116324
117612
118600
119500
120290
120833
121003
120795
120348
119866
119517
119310
119160
118975
118758
118500
118114
117462
116563
115616
114659
113603
112397
111087
109769
108528
107354
106104
104259
100705
98416
98196.3
97497.2
96642.2
95780.4
95014.1
94351.5
93792
93222.5
92352.8
91112.4
89817.5
88664.1
87654.5
86716.7
85779.7
84799.5
83660
82272.5
80886
79811.5
79034.9
78367.2
77828.3
77516.8
77312.8
76936.1
76249.6
75393.6
74358.3
72970.8
71358.9
70085.1
69249.9
68318.3
66898.7
64946.5
62468.4
59372.8
55755
51768.5
47654.2
44585.7
41734.7
37809.2
33523.3
29165.6
24701.8
19184.2
11733.9
3965.22
93377.1
93560.1
94736.1
95860
97367.5
99314.2
100531
101171
101897
102586
103627
103310
102084
101773
103235
106408
109106
111439
113924
115855
117229
118292
119238
120052
120614
120810
120643
120244
119804
119476
119275
119121
118934
118711
118441
118050
117416
116548
115615
114657
113603
112412
111126
109832
108608
107462
106319
104620
100616
98034.6
98069.3
97429.8
96609.5
95751.7
94983.2
94320.3
93751.1
93172.4
92316.7
91109.6
89836.3
88688.9
87670.8
86720.8
85783.8
84812.2
83686.5
82325
80949.5
79866.9
79072.1
78396.2
77858.9
77526.1
77299.5
76922.6
76252.2
75401.3
74363.8
73005.8
71456
70208.3
69343.6
68381.8
66963.2
65035.2
62589.1
59548.3
55999.8
52084.5
48047.4
44898.1
41954.9
38104.6
33899.8
29611.7
25229.1
20083.3
13892.5
5277.28
92854.8
93269.8
94493.5
95659.2
97132.4
99022.8
100370
101018
101635
102368
103619
103373
102104
101609
102513
105457
108380
110861
113369
115337
116796
117937
118935
119778
120362
120587
120461
120112
119716
119412
119218
119062
118877
118649
118369
117971
117351
116514
115599
114644
113592
112415
111157
109892
108695
107594
106605
105145
100527
97511.5
97891.6
97341.3
96572.3
95726
94954.6
94292
93711.8
93112.5
92264
91095.5
89850.2
88712.3
87687
86723.8
85782.6
84814.9
83702.6
82374.7
81019.8
79927
79108.3
78425.8
77887
77535.3
77280.8
76896.9
76242.7
75396
74353.9
73022.8
71535.7
70315.3
69415.4
68416.5
66991.9
65078.4
62654.2
59658
56167.8
52319.9
48380.3
45173.7
42139.4
38357.7
34240.5
30038.8
25789.8
21128.5
16346.9
6873.05
92340.9
92969.1
94235.1
95426.7
96922.6
98839.6
100249
100907
101375
102083
103505
103459
102178
101409
101822
104526
107593
110306
112796
114805
116339
117552
118596
119466
120071
120328
120251
119957
119607
119329
119142
118987
118803
118575
118286
117882
117273
116467
115571
114620
113572
112412
111183
109952
108789
107742
106926
105710
100445
96951.1
97676.8
97234.4
96527.8
95700
94929.9
94270.4
93677
93051
92200.8
91070.9
89861.7
88736.3
87706
86730.7
85780.9
84808.5
83703.5
82410.1
81088
79994.2
79156.5
78467.5
77923.4
77550.3
77263.9
76863.8
76220.6
75378.1
74335.1
73034.6
71612.7
70419.7
69480.9
68438.3
67001.4
65096.6
62691
59738.1
56309.4
52541.2
48710.8
45460.5
42339.1
38617.1
34591.4
30494.8
26437.6
22448
19139.3
9001.6
91867.5
92673.3
93958.6
95246.2
96782
98727.6
100192
100826
101053
101804
103571
103560
102178
101179
101191
103679
106934
109767
112273
114316
115914
117189
118273
119164
119788
120077
120048
119808
119502
119247
119065
118910
118728
118500
118206
117794
117194
116412
115534
114589
113547
112405
111203
110005
108881
107895
107246
106240
100388
96436.7
97447.6
97117.5
96478.7
95672.9
94909.5
94256.6
93648
92993
92136
91039.9
89867.7
88757.1
87724.8
86739.6
85778.6
84793.7
83689.1
82427
81144.4
80058.9
79210.2
78514.5
77962.4
77567
77247.3
76826.3
76187.6
75348.5
74308.5
73040.5
71679.6
70508.4
69529
68439.6
66983.8
65078.8
62683.8
59765.3
56392.1
52703.8
48976.5
45696.7
42505
38837.1
34905
30926.1
27089.1
23806.1
21870.1
11400.9
91372.4
92377.8
93752.6
95119.9
96687.5
98570.7
100181
100746
100724
101676
103804
103545
102139
100966
100578
103037
106363
109293
111819
113903
115556
116883
117996
118901
119538
119855
119869
119677
119410
119175
118997
118841
118661
118433
118133
117714
117120
116358
115495
114556
113521
112395
111219
110055
108972
108047
107537
106672
100358
96022.1
97221
96999
96429.9
95644.7
94889.2
94248.4
93624.4
92941.1
92075.8
91007.6
89869.3
88774.5
87742.2
86749.4
85775.7
84773.8
83665.1
82430
81188.6
80119.3
79264.9
78562.7
78001.6
77584.7
77232.5
76789.1
76149.4
75313.1
74279.8
73045.3
71738.7
70582.8
69562.7
68425.4
66945.8
65033.7
62643
59751.2
56427.6
52815.5
49178.4
45878.5
42630.8
39007.7
35161
31300
27686.4
25041.1
24266.7
13516.9
90946.3
92147
93656.7
95058.3
96549.7
98458.9
100130
100563
100480
101693
104062
103557
102125
100800
100079
102563
105916
108908
111456
113583
115285
116653
117786
118697
119341
119677
119727
119575
119342
119122
118946
118788
118608
118379
118073
117647
117057
116311
115460
114525
113498
112387
111235
110103
109060
108193
107774
106960
100361
95748.3
97011.7
96888.6
96387.7
95616.3
94865
94243.5
93605.5
92896.9
92023.4
90977.5
89868.4
88788.2
87757.4
86758.8
85771.7
84751.4
83637
82424.5
81221.4
80172.3
79315.4
78606.9
78037.5
77601.2
77219.6
76754.6
76110.7
75276.6
74252.2
73049.6
71788.5
70641.7
69582.6
68399.3
66892.9
64968.5
62576.4
59703.8
56421.5
52875.8
49311.3
45994.3
42700.1
39108.5
35334
31587.6
28196.1
26074.2
26227.4
15083
90630.4
92010
93644.2
95003.1
96379.7
98408.1
100123
100369
100359
101748
104260
103580
102127
100673
99709.7
102257
105617
108644
111211
113370
115108
116505
117649
118559
119204
119554
119628
119508
119299
119091
118915
118754
118573
118342
118031
117598
117010
116274
115431
114500
113479
112382
111251
110149
109144
108324
107941
107081
100399
95635.4
96828.8
96794.6
96359.6
95588.4
94833.2
94239.4
93590.5
92861
91980.9
90952.2
89866.3
88798.4
87769.7
86766.4
85766.7
84729.6
83609.2
82414.7
81243.9
80214.2
79356.8
78642.7
78066.7
77614.7
77208.7
76724.7
76075.4
75242.7
74227.2
73052
71826.8
70684.1
69590.4
68365.9
66832.8
64893.1
62495.3
59634.2
56383.3
52890.2
49378.6
46045.3
42712.7
39142.4
35429
31796.7
28620.1
26896
27651.9
15989.3
90455.8
91941.9
93631.3
94912.5
96285
98440.2
100191
100272
100258
101867
104359
103591
102121
100563
99469.1
102104
105475
108514
111087
113262
115021
116431
117580
118486
119128
119482
119573
119472
119281
119080
118904
118741
118557
118324
118006
117568
116979
116250
115412
114483
113466
112379
111267
110190
109219
108437
108038
107041
100476
95676
96671.6
96723.8
96353.6
95560.4
94787.3
94234.5
93578.8
92834.2
91949.4
90933.2
89863.9
88805.6
87778.8
86771.7
85761.4
84710.6
83585.1
82403.6
81257.1
80242.6
79384.6
78666.9
78087.4
77624.4
77200.1
76701.4
76046.6
75214.5
74206.2
73052.3
71852.8
70711.1
69589.5
68331.2
66774.1
64818.4
62411.5
59554.4
56323
52865.7
49387.6
46037.9
42674.7
39118.9
35458.3
31936.8
28958.1
27498.9
28464.4
16228.6
90416.4
91905.6
93542.7
94874.6
96308.8
98549.8
100237
100197
100311
102009
104371
103597
102119
100487
99363.3
102077
105456
108493
111062
113237
115003
116420
117568
118468
119103
119457
119553
119464
119282
119086
118910
118743
118558
118321
117998
117554
116965
116239
115403
114474
113458
112379
111280
110223
109278
108525
108078
106881
100593
95828.9
96524.7
96680.8
96364.3
95532.4
94736.2
94229.7
93570.9
92816.9
91929.3
90921.1
89861.9
88810.2
87784.5
86774.6
85756.7
84696
83566.4
82392.6
81261.3
80255.8
79397
78678.7
78099
77630.5
77195
76686.3
76027.2
75195
74191.3
73051.6
71868.8
70726.9
69585.8
68303.3
66726.9
64756.3
62338.1
59478
56253.9
52814.9
49352.2
45986.3
42599.9
39053.7
35435.8
32009.9
29198.3
27873
28678.3
15912.6
90471.9
91929
93544.7
94889.6
96371.1
98593.6
100195
100225
100500
102191
104329
103609
102137
100469
99399.7
102131
105501
108532
111093
113263
115027
116445
117591
118485
119113
119463
119559
119472
119295
119101
118925
118757
118569
118329
118002
117555
116965
116239
115402
114471
113456
112380
111288
110244
109317
108582
108080
106661
100722
96034.8
96386.8
96645.7
96323.4
95529.9
94760.7
94228.3
93567.5
92809.1
91920
90915.4
89861.2
88812.6
87787.4
86775.9
85753.6
84686.9
83553.7
82382.2
81256.8
80254.1
79395.3
78679.2
78102.7
77634.1
77194.7
76680.7
76019.6
75186.7
74184.5
73052.3
71879
70737.8
69587.1
68291.4
66703
64720.5
62291.1
59422.9
56196.4
52761.2
49301.1
45921.6
42520.4
38979.7
35390.1
32028.9
29329.5
28046.7
28425.9
15274.3
90543.5
91984
93597.9
94944.7
96454.1
98656.5
100221
100284