/*--------------------------------*- C++ -*----------------------------------*\
| =========                 |                                                 |
| \\      /  F ield         | foam-extend: Open Source CFD                    |
|  \\    /   O peration     | Version:     5.0                                |
|   \\  /    A nd           | Web:         http://www.foam-extend.org         |
|    \\/     M anipulation  |                                                 |
\*---------------------------------------------------------------------------*/
FoamFile
{
    version     2.0;
    format      ascii;
    class       volScalarField;
    location    "0.05";
    object      pd;
}
// * * * * * * * * * * * * * * * * * * * * * * * * * * * * * * * * * * * * * //

dimensions      [1 -1 -2 0 0 0 0];

internalField   nonuniform List<scalar> 
4000
(
88180.6
89956.7
91738.9
93608.7
95745
97806.4
99914.5
101407
102249
103524
104014
103700
104920
106460
108889
112969
115897
118631
121213
123300
122071
119299
119630
120570
121819
122626
121708
119478
116121
114967
116512
117488
117555
118083
118747
118784
118164
115355
111796
111152
112611
113066
111231
108943
106764
104630
103861
104670
104889
101580
97386.5
96318.1
96727.7
97026.2
96332.8
94715.2
93739.8
93062.6
92589.5
92720
91533.2
88144.4
84452.7
82986.8
83497.7
83883.5
83492.6
83210.2
82939.3
82459.1
81858.1
79649.2
75697.6
73486.5
74350.8
76164.8
76428
75428.2
73634.4
71617.3
69633.8
68065.9
68363.2
68081.5
66392.1
64950.5
62342.9
57514.9
52852.8
48980.8
45488.4
42097.7
39224.7
36100.9
32107.8
27966.2
22643
15672.9
9589.39
3778.25
88081.4
89888.5
91665.6
93532.2
95666.8
97761.3
99851.8
101355
102168
103509
104072
103726
104973
106478
108868
113027
115869
118582
121144
123304
122110
119218
119609
120535
121768
122589
121718
119559
116123
114956
116554
117486
117523
118050
118726
118748
118197
115375
111774
111137
112588
113079
111228
108967
106843
104651
103805
104628
104940
101619
97368
96356.5
96734.8
97051.5
96368.6
94656.7
93700.5
93047.6
92520.6
92689.3
91597.1
88203.7
84446.7
82997.6
83555.1
83884.8
83452.1
83158.3
82922.6
82423.1
81879.8
79717.8
75698.5
73474.1
74337.4
76141.8
76370.7
75349.1
73648.3
71638.2
69658
68030.4
68317.3
68021.3
66306
64887.6
62341.3
57504.6
52861.8
49037.1
45547
42104.9
39214.9
36160.8
32098.7
27948.4
22667.5
15688.6
9571.85
3768.87
87999.1
89861.4
91641.3
93487.2
95566.5
97663
99929.7
101304
102080
103637
104203
103657
104772
106454
108894
112949
115851
118671
121087
123313
122235
119213
119649
120457
121584
122568
121904
119578
116075
114968
116568
117504
117525
118012
118696
118722
118250
115439
111782
111071
112570
113168
111315
108910
106732
104650
103833
104585
104979
101664
97389.3
96327.4
96745
97052.2
96293.1
94599
93762
93097.4
92452.8
92660.4
91738.9
88203.6
84340.9
83046.7
83600.6
83778.4
83324.7
83138.1
83014.8
82434.5
81911.4
79717.8
75675.3
73494.2
74300.1
76021.9
76249.1
75343.7
73740
71700.3
69665.9
67938
68158.4
67983.5
66323.6
64891.3
62462.6
57574.6
52883.9
49084.7
45554.8
41986.2
39148.3
36224.2
32129.1
27977.5
22743.3
15717.3
9461.14
3721.64
88045.3
89930.1
91713.3
93525.4
95542.3
97683.5
100120
101320
101988
103771
104135
103534
104572
106410
109042
112884
115823
118581
121033
123390
122282
119288
119813
120251
121410
122682
122131
119557
115944
115067
116573
117413
117497
118125
118695
118601
118334
115510
111674
111112
112615
113206
111335
108754
106430
104688
103982
104584
104954
101683
97466
96207.8
96671.2
96965.2
96094.4
94612.6
93926.6
93218.8
92397.6
92681.6
91799.6
88063.4
84242.6
83152
83682.9
83552.3
83183.5
83313.9
83131.5
82447.1
81802
79607.3
75713.2
73592.7
74276.8
75836.3
76124.1
75445.2
73800.8
71843.6
69552.8
67716
68029.7
68010.1
66502.4
64975.6
62589.5
57671.2
52974.7
49128.1
45502.9
41818.7
39076.3
36323.5
32231.8
28046
22869
15712.2
9232.74
3514.19
88278.1
90104.6
91886.2
93662.7
95612.7
97770.6
100223
101420
102052
103775
104059
103421
104438
106614
109166
112801
115619
118165
121111
123562
122408
119411
119688
120118
121383
122862
122280
119395
115833
115200
116473
117314
117632
118278
118561
118481
118469
115441
111563
111242
112765
113294
111266
108391
106146
104706
104190
104653
104877
101687
97561
96087.3
96456.1
96719.4
95918.8
94694
94213.6
93317.5
92311.5
92862.5
91763.9
87798.1
84179.1
83317.4
83854.2
83431.2
83063
83373.2
83211
82463.8
81652.4
79519.9
75768.1
73734
74225
75637.9
75972.8
75414.6
73949.8
72209.6
69476.3
67265.7
67903.6
68285.1
66735.3
64930.9
62797.4
57788.3
52923.2
49134.5
45387.1
41745
39047.7
36473.5
32342.3
28085.1
22970.9
15707.5
8763.82
3130.17
88728.6
90418.2
92192.7
93905.6
95742
97899
100237
101572
102113
103780
104070
103320
104506
106898
109232
112496
115461
118036
121134
123531
122668
119607
119296
119928
121415
123249
122356
119040
115776
115393
116433
117135
117782
118382
118438
118472
118509
115268
111438
111427
112865
113466
111309
107969
105893
104796
104371
104737
104881
101757
97664.6
96040
96124.3
96433.6
95869.9
94847.2
94678
93479.4
92144.9
92899.6
91669.4
87499.8
84078.5
83588.8
84197.5
83416.4
82872.6
83348.8
83326.4
82427.4
81553.6
79435.4
75857.3
73882.8
74198.2
75440
75906.1
75314.1
74091.4
72655.7
69423.4
66952
67857.3
68747.1
66972.7
64876.9
62895.4
57836.6
52747.6
49058
45347.2
41716.5
39137.3
36646.9
32420.3
28071.5
23112.3
15640.7
8102.55
2649.66
89372
90849.8
92646.3
94289.3
95950.4
98087.5
100345
101683
102172
103758
104134
103354
104600
106969
109322
112370
115356
118035
121114
123283
122702
120003
119154
119621
121459
123444
122257
118644
115820
115758
116495
116973
117754
118412
118401
118471
118524
115115
111317
111453
112927
113745
111416
107602
105634
104935
104557
104804
104893
101788
97869.4
96108.2
95919
96204.6
95879.3
95042.8
95035.2
93642.2
92062.7
92729.6
91509.1
87245.9
83945.5
83841.7
84596.7
83545.6
82766.2
83288.4
83438.8
82376.9
81374.8
79389.3
75893.9
74123.7
74250.7
75184.8
75910.7
75422.9
74235.4
72899.7
69327.2
66771.7
67826.6
69133.7
67206.3
65000.4
62939.8
57755.3
52485.9
48943.4
45393.4
41728.7
39291.9
36877.7
32505
27951.9
23252.1
15584.2
7330.18
2165.88
90145.3
91306.6
93025.7
94588.9
96208.9
98344.8
100390
101796
102313
103725
104203
103549
104694
106855
109442
112504
115317
118056
121130
123072
122361
120297
119167
119328
121525
123386
122046
118362
115931
116122
116577
116914
117749
118328
118370
118576
118499
114992
111264
111423
112979
113932
111418
107243
105425
105133
104810
104933
104818
101802
98087.4
96158.9
95852.5
96106.4
95975.5
95236.8
95113.4
93758.9
92116.6
92442.9
91286.8
87010.5
83785.4
84022.3
84925.2
83735.8
82780.2
83317.8
83484.1
82274.7
81177.4
79268.2
75880.5
74393.7
74460.9
75024.2
75861.2
75528.9
74562.6
72994.2
69176.6
66661.1
67816.1
69373.4
67441.6
65134.6
62952
57607.2
52295.5
48893
45454.2
41827.5
39513.5
37035.9
32552
27898.9
23354.5
15508.4
6544.41
1691.47
90977.8
91787
93454.4
94956.5
96492.1
98580.9
100577
101860
102460
103722
104272
103876
104776
106765
109370
112711
115585
118103
121179
122903
121996
120164
119081
119298
121641
123173
121722
118220
116050
116275
116534
116966
117853
118364
118362
118630
118379
114867
111310
111465
113047
113935
111260
106871
105263
105297
105093
105066
104760
101849
98075.5
96198.9
95916.2
96107.1
96134.3
95388.1
94998.5
93819
92275.1
92209.5
90871
86685.8
83723.5
84079.4
85118.1
83979
82880.3
83456.7
83536.6
82299
81054.9
78945.8
75777.6
74703.1
74698.8
75000.3
75724.6
75681.1
74850
73028.3
69078.2
66554.9
67863.4
69524.8
67729.2
65259
62856.3
57425.2
52167.1
48930.6
45490.4
41812.2
39726.9
37186.1
32559.4
27926.4
23425.6
15355.4
5688.7
1196.53
91821.6
92270.3
93869.3
95307.6
96773.5
98838.3
100802
101965
102611
103819
104352
104059
104883
106812
109294
112818
115878
118286
121217
122641
121552
119856
118989
119546
121860
123018
121265
117951
115961
116331
116549
116985
118002
118547
118416
118678
118168
114576
111380
111643
113188
113881
111011
106576
105164
105495
105416
105202
104645
101704
97848.6
96280.3
96082.6
96150
96231.4
95504.9
95040.3
93895.9
92449.4
92023.5
90416.6
86320.6
83729.9
84168
85153.9
84143.3
83109.1
83647
83503.1
82204.9
81022.6
78691.2
75686.6
74847.3
74920.7
75112.2
75651.9
75864.8
75073.9
72889.7
68919.1
66549
67953.6
69604.1
67953.3
65408.6
62694.6
57261.4
52105.2
48919.1
45415
41905.9
39921.2
37275.8
32562.1
27967.2
23428.7
15162.7
4979.65
739.957
92640.2
92725.7
94231.4
95614.6
97071.7
99113.7
101006
102092
102813
103906
104351
104155
104939
106895
109387
112895
116164
118463
121133
122417
121127
119529
119063
119845
121993
122894
120936
117629
115768
116323
116637
117070
118110
118724
118553
118733
117895
114218
111473
111891
113422
113835
110712
106366
105123
105612
105744
105425
104488
101387
97585.9
96410.2
96288.5
96173.7
96233.1
95614.3
95063.4
93940.5
92582.9
91929.5
90012.4
85973.8
83812.4
84310.3
85062.4
84240.3
83436.6
83861
83446
82017.5
80922.2
78563.8
75634.8
74850.4
75051
75342.6
75688.5
76037.6
75240.9
72737.8
68759.3
66570.2
68096.7
69718.7
68076.2
65476.3
62511
57116.4
52085.9
48900.1
45371
41981
40050.1
37284.8
32544.4
27985.9
23328
14907.5
4256.28
164.721
93413.7
93144.5
94535.5
95885.1
97347.6
99397.8
101213
102260
103004
103954
104291
104175
105026
106899
109402
113015
116307
118464
121033
122242
120781
119238
119162
120114
122052
122799
120725
117391
115661
116349
116734
117172
118253
118915
118651
118755
117649
113905
111590
112199
113660
113764
110421
106213
105139
105751
105992
105498
104364
101081
97372.1
96552.2
96471.4
96165.8
96219
95723.2
95140.7
93962
92670.9
91809.2
89648.6
85709.4
83943.2
84506.9
85041.6
84290.8
83710.7
84034.3
83330.3
81789.9
80827.8
78491.4
75580.1
74792.7
75196.8
75544.9
75773.2
76128.5
75337.3
72635
68612.1
66602.1
68323.9
69855
68139.7
65443.7
62306.5
56973
52055.7
48850.3
45300.5
42016.9
40122.9
37260.5
32544.4
27951.2
23052
14664.6
3406.14
-582.901
94128
93539.6
94792.7
96131.1
97641.8
99713.2
101431
102413
103142
103949
104205
104174
105013
106888
109408
113074
116351
118394
120909
122075
120486
119053
119238
120305
122077
122699
120520
117149
115651
116414
116857
117319
118434
119079
118685
118699
117433
113732
111798
112516
113813
113633
110162
106136
105224
105948
106154
105521
104264
100822
97250.5
96707.9
96630.5
96114.9
96201.3
95857.6
95191.9
93939.6
92699.9
91634.3
89319.7
85594.1
84135.6
84715.2
85061.6
84344.3
83922.7
84136.3
83139.1
81525.7
80747.7
78499.4
75563.5
74832.6
75413.5
75730.2
75793.2
76127.8
75378.4
72589.6
68499.3
66639.9
68567.3
69998.5
68149.2
65337.3
62086.7
56866.5
52027
48748.9
45193.5
42002.5
40146.8
37239.3
32449
27841.8
22622
14181.5
2477.88
-1391.14
94757.1
93887.8
95055.9
96367.5
97900.9
99935.2
101623
102568
103251
103915
104111
104148
104998
106831
109321
113038
116342
118276
120771
121867
120218
118881
119291
120418
122078
122597
120274
117016
115746
116494
117024
117549
118606
119183
118663
118585
117275
113697
112074
112848
113872
113430
109979
106144
105346
106158
106268
105503
104133
100618
97063.6
96805.7
96814.4
96124.6
96166
95976
95212.7
93888.6
92712
91425.6
89053.8
85609.3
84392.8
84914.3
85047.3
84379.3
84075.7
84215.6
82936.6
81236.9
80673.1
78626.3
75593.2
74886.8
75651.6
75940.6
75750.1
76058.9
75426.2
72612.4
68415
66655.5
68722.5
70185.9
68148.9
65148.5
61871.2
56866.9
51978
48612.6
45096.5
41898.2
40082.5
37182.4
32326.2
27582.8
22131.3
13634.1
1472.09
-2172.65
95283.8
94175.4
95267.3
96562
98127.9
100167
101809
102711
103333
103868
104040
104158
104982
106709
109115
112895
116320
118193
120574
121632
119995
118728
119343
120443
122025
122523
119975
116985
115856
116572
117232
117947
118740
119114
118561
118446
117249
113650
112386
113193
113842
113120
109887
106330
105428
106268
106329
105474
104049
100425
96931.1
96815.3
97072.4
96305.5
96043.1
95911.5
95192.1
93864.1
92706.2
91223
88766.9
85731.3
84780.5
85019.9
84870.5
84349.8
84198.3
84325.6
82814.9
81008.3
80565.4
78742.2
75763.6
74889.1
75718.1
76172.6
75681.7
75970.3
75487
72775.5
68497.7
66505.9
68643.7
70466.9
68191.5
64852.7
61681.9
56936.6
51988.1
48455
45009.3
41884
39917.3
36902.3
32080.1
27202.1
21545
13081.9
599.129
-2852.58
95695.3
94399.5
95420.3
96705.5
98322.6
100393
101979
102806
103367
103804
103978
104184
104967
106553
108825
112653
116338
118240
120251
121357
119738
118548
119372
120391
121938
122369
119829
117195
116175
116672
117299
118387
118967
118990
118373
118290
117195
113820
112726
113328
113870
112814
109766
106587
105631
106299
106102
105427
104071
100414
96867.7
96713.5
97366.7
96591.6
95976.9
95685.1
94881.1
93805.9
92823.1
91090.8
88513.7
85943.1
85290
85139.1
84546.4
84116.5
84293
84462.9
82887.7
80864.1
80323.7
78705.9
76050.2
75003.7
75628.5
76221.4
75555.1
75878.6
75641.9
73031.8
68766.8
66451.7
68423.9
70632.1
68288.8
64479
61395.3
57018.7
51972.6
48275
45017.7
42062.9
39745.4
36328
31603.7
26727.9
20985.9
12596.1
-55.4834
-3394.02
95986.3
94561
95520.9
96814.5
98501.4
100594
102092
102844
103376
103738
103923
104213
104931
106368
108511
112271
116310
118461
119932
120897
119665
118552
119311
120169
121734
122301
120014
117507
116647
116747
117260
118700
119163
118961
118053
118163
117197
114203
113202
113465
113834
112368
109666
106949
106003
106161
105562
105324
104209
100597
96922.5
96503
97583.7
96906.2
95988.7
95396.2
94283.4
93663.2
93012.8
91093.6
88409.7
86181.2
85787.1
85342
84271.4
83687.7
84265.8
84661.6
83125.1
80897.6
80034
78450.4
76287
75258.9
75563.7
76045.2
75378.3
75920.8
75896.7
73148.1
69102.1
66384.5
68303.3
70717.2
68059.4
64232.1
61180.2
56933.8
51933.4
48198.8
45033.4
42331.4
39608.6
35749.5
31044.7
26081.6
20466.3
12237.3
-483.393
-3779.25
96157.2
94657.1
95575.2
96900.8
98662.8
100735
102133
102844
103368
103673
103883
104246
104879
106175
108280
111733
116080
118709
119806
120521
119644
118559
119351
120242
121360
121993
120301
118126
117129
116884
117377
118709
119040
119060
118083
118099
116899
114528
113962
113656
113615
111961
109528
107532
106457
105932
105283
105169
104206
100871
97155
96189.7
97551.4
97388.4
96020.1
95041.3
93945.2
93484.2
93021.8
91244.4
88496.3
86536.8
86136.5
85317.8
84065.1
83544
84136.9
84647.3
83360.4
81126
79828
77981.7
76380.5
75725.9
75676.5
75818.4
75379.6
75838.9
75845.7
73228.2
69406.6
66516.3
68137.5
70428.1
67733.9
63948.6
61060.8
56923.1
52053.5
48222.5
44870.1
42451.1
39632.5
35220.7
30549.3
25509.9
19885.6
11979.3
-689.537
-4000.21
96232.8
94691.7
95587.1
96966.2
98792
100811
102114
102806
103342
103596
103853
104266
104826
105996
108034
111275
115683
118685
119652
120241
119609
118831
119528
120392
121363
121484
120323
118812
117621
117315
117731
118367
118635
119212
118538
118123
116573
114828
114469
113790
113492
111983
109429
107807
106895
106083
105368
104661
103767
101092
97598.3
96161.4
97319.6
97557.6
96011.4
94990.9
93929.8
93049.7
92608.4
91435.2
88905.5
86908
86251.1
85298.3
84211.6
83673.4
83672.8
84265.3
83515.3
81254.6
79712.1
77829
76372.7
75962.9
75844.5
76013.7
75680.1
75411.1
75316.7
73244.1
69603.2
66856.3
67974.8
69911.6
67501.1
63615.5
60963.9
56959.7
52208.5
48278.1
44911.7
42597.8
39467.4
34939.3
30142.7
25057.9
19460.3
11746.3
-687.752
-4060.16
96281.1
94710.3
95580.4
97009.1
98890.5
100849
102052
102732
103294
103483
103804
104244
104751
105878
107855
110995
115132
118250
119349
119914
119562
119084
119714
120550
121412
121450
120486
119149
118030
117719
118035
118471
118348
119035
118922
118150
116741
115192
114587
113873
113411
112016
109723
108128
107095
106197
105341
104480
103376
100899
97858.3
96480.9
97209.7
97286.3
95894.8
94918
93929.1
93010.7
92312.4
91302.5
89249.9
87233.7
86381.6
85463.6
84441.7
83708.1
83548.8
83892.7
83237.5
81171.7
79544.2
77620.7
76313.4
76230
76291.9
76337.4
75834.4
75369.5
74940.9
72963.6
69657.4
67386.6
67878.8
69182
67191.2
63691
61083
56740.9
52294.8
48211.6
44902.9
42831.3
39426.7
34812.6
29919.8
24815.4
19286
11737.4
-485.146
-3980.98
96303.3
94723.2
95566.8
97014.3
98989.9
100913
101967
102644
103233
103296
103722
104160
104599
105848
107879
110931
114480
117344
118721
119483
119445
119245
119877
120691
121449
121495
120661
119442
118437
118097
118303
118642
118544
118989
118868
118121
116922
115489
114718
113996
113377
112035
109998
108403
107297
106351
105385
104335
102943
100614
98039.4
96769.4
97101.1
96960.9
95770.9
94840.6
93941.7
93057.1
92045.3
91201.8
89570.6
87554
86582.4
85693.2
84700.7
83906.4
83483.5
83330.3
82812.4
81014.2
79387.4
77353.8
76217.3
76520.2
76825.4
76700.3
75961.9
75419.7
74712.3
72693.9
69639.3
67853.5
68263.5
68830.8
66607.1
63678.6
61287.5
56960.2
52528.3
47770.1
44714.8
43165.4
39556.8
34845.4
29895.6
24803.3
19358.4
11957.5
-151.176
-3791.07
96268.3
94706
95531.6
96985.2
99075.1
100981
101873
102536
103156
103066
103754
104141
104290
105578
107699
110738
113754
116420
118095
119083
119312
119354
120010
120802
121480
121532
120812
119721
118808
118442
118553
118789
118720
118951
118795
118153
117089
115748
114889
114131
113377
112056
110215
108655
107504
106496
105428
104187
102537
100324
98160.5
97005
96999.5
96671.6
95640.9
94763.7
93948.3
93122.8
92133.2
91129.2
89594.8
87785.3
86789.8
85910.6
84932.1
84095.6
83504.5
83047.5
82260.9
80661
79215.8
77323.5
76337.4
76735.5
77122.1
76964.8
76083.1
75379.6
74539.6
72622.9
69590.4
68136.4
68622.5
68613.5
66546.2
63811.2
61226.1
57168.6
52788.4
47672.4
44608.5
43335.5
39793
35006.6
30029.2
24970.2
19625.1
12370.4
320.292
-3478.42
96141
94729.5
95420.8
96928
99095.5
100918
101734
102407
103080
103027
103755
103806
103798
105113
107418
110528
113067
115589
117510
118713
119170
119419
120098
120870
121487
121546
120928
119962
119129
118748
118776
118912
118835
118918
118746
118193
117230
115977
115066
114262
113399
112092
110400
108889
107701
106631
105469
104057
102165
100031
98235.7
97196.1
96915
96428.9
95510.4
94690.2
93951.5
93188.5
92230.4
91103.2
89601.7
88010.4
87006.8
86117.3
85141.3
84254.3
83512.8
82783.2
81785
80345.6
79116.7
77517.4
76653.9
76926.2
77247.8
77053.8
76159.7
75343.5
74419.1
72607.9
69963.5
68533.4
68615.5
68333
66515
63941.3
61250.1
57426.7
53122.9
48008.8
44569
43310.4
40145.2
35286.2
30313.5
25310.1
20080.8
12989.1
1041.66
-2994.16
95928.3
94707.6
95357.6
96798.4
98937.2
100813
101540
102240
103032
102987
103673
103704
103352
104262
107024
110358
112490
114850
116954
118344
118997
119422
120128
120884
121457
121527
121003
120154
119394
119008
118964
119013
118914
118891
118706
118220
117340
116170
115229
114381
113436
112141
110564
109102
107887
106763
105523
103959
101822
99738.5
98277.9
97343
96846.1
96232.5
95387.1
94621.7
93949.5
93242.1
92294.8
91083.6
89627.4
88207.4
87208.8
86305
85329
84394.3
83512.1
82541.4
81394.7
80100.5
79060.4
77776.2
77003.4
77095.8
77308.3
77066.1
76198.6
75326.6
74345.8
72624.2
70306
68892.7
68648.1
68177.8
66515.6
64098.4
61386.9
57739.9
53544.4
48724.8
44618.3
43131.8
40593.9
35680.2
30754.9
25843
20748.9
13838.2
2095.65
-2304.06
95642.7
94628.1
95338.6
96675.9
98670.2
100618
101292
102046
102964
102951
103628
103627
102966
103608
106515
109973
111950
114164
116407
117954
118778
119354
120093
120842
121386
121473
121034
120293
119601
119215
119111
119089
118965
118868
118668
118229
117418
116324
115367
114482
113481
112200
110711
109291
108058
106895
105599
103904
101511
99452.3
98298.8
97448.3
96790.6
96078.6
95275.9
94556.9
93937.6
93277.3
92338.7
91076.8
89663.9
88368
87378
86462.4
85489.7
84518.4
83519.6
82358.9
81108.7
79926.2
79027.2
78002.8
77304.4
77239.3
77328.3
77052.1
76228.7
75331.1
74314.8
72675.5
70590.5
69207.6
68739.8
68115.7
66561.3
64285.2
61594.9
58093.5
54022.3
49451.7
44985.3
43182.4
40937
36129.1
31308.4
26515.8
21573.3
14880
3500.83
-1395.36
95270.5
94498.8
95293
96491.6
98423
100421
101091
101822
102800
102977
103600
103474
102741
103105
105760
109386
111443
113541
115869
117541
118515
119223
119998
120748
121278
121384
121022
120378
119749
119368
119217
119140
118992
118843
118628
118220
117467
116438
115475
114562
113528
112263
110840
109456
108214
107026
105697
103900
101232
99174.2
98305.3
97515.1
96746.3
95961.5
95180.5
94495
93912.9
93291.3
92365.5
91081.7
89707.7
88491.6
87505.4
86582.7
85617.5
84625.1
83542.6
82254.2
80931.6
79816.5
79007.8
78166.2
77531.3
77358.1
77330
77022.2
76248.3
75347.2
74312.5
72755.5
70843.5
69487.1
68861.9
68119.5
66638.8
64484.4
61839.8
58467.3
54527.9
50151.3
45634.2
43438
41164.8
36597.1
31920.1
27259.1
22470.9
16036.6
5252.76
-262.678
94834.4
94329.8
95205.8
96340.9
98170
100199
100972
101635
102619
102986
103565
103307
102534
102710
105027
108685
110974
112982
115352
117116
118216
119034
119850
120609
121136
121266
120970
120409
119839
119465
119282
119166
119000
118816
118587
118195
117488
116514
115552
114617
113566
112321
110948
109592
108346
107150
105816
103954
100994
98908.6
98298.6
97546
96709
95876.7
95105.5
94437.6
93876.6
93284.3
92376.6
91094.3
89752.9
88578.6
87588.6
86662.1
85707.9
84710.3
83580.2
82217.1
80852
79772
79002.6
78271.9
77687.8
77447.9
77327.6
76979.8
76247.6
75363.3
74326
72847.9
71065.3
69735.8
69002.6
68167.4
66726.1
64667.6
62086.3
58831.8
55024.9
50811.9
46439.7
43823.2
41317.8
37046
32524.7
27987.4
23338.5
17197.1
7316.41
1086.11
94374.7
94102.5
95095.2
96200.7
97908.7
99933.1
100847
101495
102391
102910
103592
103234
102299
102343
104438
107981
110452
112507
114901
116727
117929
118839
119698
120469
121001
121152
120905
120406
119883
119518
119315
119175
118997
118792
118547
118161
117487
116555
115598
114648
113591
112366
111029
109692
108446
107255
105946
104065
100820
98672.8
98273.7
97540.9
96675.5
95820
95053.1
94389.8
93834.6
93260
92372.3
91106.4
89790.6
88632.1
87632.7
86702
85758.5
84767.3
83621.9
82229.9
80846.4
79776.4
79010.9
78332.1
77780.2
77497.7
77320.1
76946.8
76243
75377
74341
72917.6
71235.1
69933.5
69132.6
68236.3
66809.8
64816.7
62293.6
59129.3
55428.2
51348.1
47140.9
44227.8
41501.2
37450.6
33064.3
28628.5
24085.4
18239.5
9540.81
2569.13
93885.9
93837.4
94937.3
96035.7
97638.5
99634.9
100696
101340
102155
102796
103618
103252
102147
102016
103860
107259
109819
112050
114446
116325
117613
118600
119501
120290
120833
121003
120796
120348
119867
119517
119311
119160
118975
118758
118500
118114
117462
116564
115616
114659
113604
112397
111087
109769
108529
107355
106105
104260
100706
98416.5
98196.8
97497.7
96642.7
95780.9
95014.6
94352
93792.5
93222.9
92353.3
91112.9
89817.9
88664.6
87655
86717.2
85780.2
84800
83660.5
82273
80886.5
79812
79035.4
78367.6
77828.8
77517.3
77313.3
76936.6
76250.1
75394.1
74358.7
72971.2
71359.4
70085.6
69250.4
68318.8
66899.2
64947
62468.9
59373.3
55755.5
51769
47654.7
44586.2
41735.2
37809.6
33523.8
29166.1
24702.3
19184.7
11734.3
3965.71
93377.6
93560.5
94736.6
95860.5
97368
99314.6
100532
101171
101897
102586
103627
103310
102084
101773
103235
106408
109107
111439
113925
115856
117229
118292
119239
120053
120615
120811
120643
120244
119805
119477
119275
119121
118935
118711
118442
118051
117416
116548
115615
114658
113604
112412
111127
109833
108608
107463
106319
104621
100616
98035.1
98069.8
97430.3
96610
95752.2
94983.7
94320.8
93751.5
93172.9
92317.2
91110.1
89836.8
88689.4
87671.3
86721.3
85784.3
84812.7
83687
82325.5
80950
79867.4
79072.6
78396.7
77859.3
77526.6
77299.9
76923.1
76252.7
75401.8
74364.3
73006.3
71456.4
70208.8
69344.1
68382.3
66963.7
65035.6
62589.6
59548.8
56000.3
52084.9
48047.9
44898.6
41955.4
38105.1
33900.3
29612.2
25229.5
20083.8
13893
5277.77
92855.2
93270.3
94494
95659.7
97132.9
99023.3
100371
101019
101636
102368
103619
103374
102105
101609
102513
105458
108380
110861
113370
115337
116796
117938
118935
119779
120363
120587
120462
120113
119716
119413
119218
119063
118877
118650
118369
117972
117351
116515
115600
114644
113592
112415
111157
109892
108695
107594
106606
105145
100527
97512
97892.1
97341.8
96572.8
95726.5
94955.1
94292.5
93712.3
93113
92264.5
91096
89850.7
88712.8
87687.5
86724.3
85783.1
84815.4
83703.1
82375.2
81020.3
79927.4
79108.8
78426.2
77887.5
77535.7
77281.3
76897.4
76243.2
75396.5
74354.4
73023.3
71536.2
70315.7
69415.9
68417
66992.3
65078.9
62654.7
59658.5
56168.3
52320.4
48380.8
45174.2
42139.9
38358.2
34240.9
30039.3
25790.3
21129
16347.4
6873.54
92341.4
92969.6
94235.6
95427.2
96923
98840.1
100250
100907
101376
102083
103506
103459
102179
101409
101822
104527
107594
110307
112797
114806
116339
117552
118596
119466
120071
120329
120252
119958
119608
119329
119142
118987
118804
118575
118287
117882
117274
116467
115571
114620
113573
112413
111183
109952
108790
107742
106926
105710
100446
96951.6
97677.3
97234.9
96528.2
95700.5
94930.4
94270.9
93677.5
93051.5
92201.3
91071.4
89862.1
88736.8
87706.5
86731.2
85781.4
84809
83704
82410.6
81088.4
79994.7
79157
78468
77923.9
77550.8
77264.4
76864.3
76221.1
75378.6
74335.6
73035.1
71613.2
70420.2
69481.3
68438.8
67001.9
65097.1
62691.5
59738.6
56309.9
52541.7
48711.3
45461
42339.6
38617.6
34591.9
30495.3
26438.1
22448.4
19139.8
9002.09
91868
92673.8
93959.1
95246.7
96782.5
98728.1
100192
100827
101054
101804
103572
103560
102178
101180
101191
103679
106934
109767
112273
114317
115914
117190
118273
119164
119789
120078
120049
119808
119502
119247
119065
118910
118729
118501
118206
117794
117194
116413
115535
114589
113548
112405
111203
110006
108882
107895
107246
106240
100389
96437.2
97448.1
97118
96479.2
95673.4
94910
94257.1
93648.5
92993.5
92136.5
91040.4
89868.2
88757.6
87725.3
86740.1
85779.1
84794.2
83689.6
82427.5
81144.9
80059.4
79210.7
78514.9
77962.9
77567.5
77247.8
76826.8
76188.1
75349
74309
73041
71680
70508.9
69529.5
68440.1
66984.3
65079.3
62684.3
59765.8
56392.6
52704.3
48976.9
45697.2
42505.5
38837.6
34905.5
30926.6
27089.6
23806.5
21870.6
11401.4
91372.9
92378.3
93753.1
95120.4
96688
98571.2
100182
100746
100725
101676
103805
103545
102139
100967
100579
103037
106363
109294
111819
113903
115557
116883
117996
118901
119538
119855
119869
119677
119411
119175
118997
118841
118661
118433
118133
117714
117120
116359
115496
114556
113522
112396
111220
110056
108972
108048
107538
106672
100359
96022.6
97221.5
96999.5
96430.4
95645.2
94889.6
94248.9
93624.9
92941.6
92076.3
91008.1
89869.8
88775
87742.7
86749.9
85776.2
84774.2
83665.6
82430.5
81189.1
80119.8
79265.4
78563.2
78002.1
77585.2
77233
76789.6
76149.8
75313.6
74280.3
73045.8
71739.2
70583.3
69563.2
68425.9
66946.3
65034.2
62643.4
59751.7
56428.1
52816
49178.9
45879
42631.3
39008.2
35161.5
31300.5
27686.9
25041.6
24267.2
13517.4
90946.8
92147.5
93657.2
95058.7
96550.2
98459.4
100130
100563
100481
101694
104062
103558
102125
100800
100079
102564
105916
108908
111457
113583
115285
116654
117786
118697
119341
119678
119727
119576
119342
119122
118946
118788
118608
118380
118074
117648
117058
116311
115460
114526
113498
112388
111236
110104
109061
108193
107775
106961
100361
95748.8
97012.2
96889.1
96388.2
95616.8
94865.5
94244
93606
92897.4
92023.9
90978
89868.9
88788.7
87757.9
86759.3
85772.2
84751.9
83637.4
82425
81221.9
80172.8
79315.9
78607.4
78037.9
77601.7
77220.1
76755.1
76111.2
75277.1
74252.7
73050
71789
70642.2
69583.1
68399.8
66893.4
64969
62576.9
59704.3
56422
52876.3
49311.8
45994.8
42700.6
39109
35334.5
31588
28196.6
26074.7
26227.9
15083.5
90630.9
92010.5
93644.7
95003.6
96380.2
98408.6
100123
100370
100360
101749
104260
103581
102127
100673
99710.2
102258
105618
108644
111212
113370
115109
116505
117649
118560
119205
119554
119629
119508
119299
119091
118916
118755
118574
118343
118031
117599
117010
116274
115432
114501
113480
112382
111252
110149
109144
108325
107942
107081
100400
95635.9
96829.3
96795.1
96360.1
95588.9
94833.7
94239.9
93591
92861.5
91981.4
90952.7
89866.8
88798.9
87770.2
86766.9
85767.2
84730.1
83609.7
82415.2
81244.4
80214.7
79357.3
78643.2
78067.2
77615.2
77209.1
76725.2
76075.9
75243.2
74227.7
73052.5
71827.3
70684.6
69590.9
68366.3
66833.3
64893.6
62495.8
59634.7
56383.8
52890.6
49379.1
46045.8
42713.2
39142.9
35429.5
31797.2
28620.6
26896.5
27652.4
15989.8
90456.3
91942.4
93631.8
94913
96285.5
98440.7
100191
100272
100259
101868
104359
103592
102121
100563
99469.6
102105
105475
108514
111088
113263
115021
116432
117580
118487
119128
119483
119573
119473
119281
119081
118905
118741
118558
118324
118007
117568
116980
116251
115413
114484
113466
112380
111267
110191
109219
108438
108038
107041
100477
95676.4
96672.1
96724.3
96354.1
95560.9
94787.8
94235
93579.3
92834.7
91949.9
90933.7
89864.4
88806.1
87779.3
86772.2
85761.9
84711.1
83585.6
82404.1
81257.6
80243.1
79385.1
78667.4
78087.9
77624.9
77200.6
76701.9
76047.1
75215
74206.7
73052.8
71853.3
70711.6
69590
68331.7
66774.6
64818.9
62412
59554.9
56323.5
52866.2
49388.1
46038.4
42675.2
39119.4
35458.8
31937.3
28958.5
27499.4
28464.9
16229.1
90416.8
91906.1
93543.1
94875
96309.3
98550.3
100237
100198
100311
102009
104371
103598
102120
100487
99363.7
102077
105456
108493
111062
113238
115004
116421
117568
118468
119103
119457
119554
119464
119283
119087
118910
118744
118558
118321
117999
117555
116966
116239
115403
114474
113459
112379
111280
110223
109279
108525
108079
106882
100594
95829.4
96525.2
96681.3
96364.8
95532.9
94736.7
94230.2
93571.4
92817.4
91929.8
90921.6
89862.4
88810.7
87785
86775.1
85757.2
84696.5
83566.9
82393.1
81261.8
80256.3
79397.5
78679.2
78099.5
77631
77195.5
76686.8
76027.7
75195.5
74191.8
73052.1
71869.3
70727.4
69586.3
68303.8
66727.4
64756.8
62338.6
59478.5
56254.4
52815.4
49352.7
45986.8
42600.4
39054.2
35436.3
32010.4
29198.8
27873.4
28678.8
15913.1
90472.4
91929.5
93545.1
94890.1
96371.6
98594.1
100196
100225
100500
102192
104330
103609
102137
100470
99400.2
102132
105501
108532
111094
113263
115028
116446
117591
118485
119114
119463
119559
119473
119295
119102
118925
118757
118569
118329
118003
117556
116965
116239
115402
114471
113456
112380
111289
110244
109318
108582
108081
106662
100723
96035.3
96387.3
96646.2
96323.9
95530.4
94761.2
94228.8
93568
92809.6
91920.5
90915.9
89861.6
88813.1
87787.9
86776.4
85754.1
84687.4
83554.2
82382.7
81257.2
80254.6
79395.8
78679.7
78103.2
77634.6
77195.2
76681.2
76020
75187.2
74185
73052.8
71879.5
70738.3
69587.6
68291.9
66703.5
64721
62291.6
59423.4
56196.9
52761.7
49301.6
45922.1
42520.9
38980.2
35390.6
32029.4
29330
28047.1
28426.4
15274.8
90544
91984.5
93598.4
94945.2