/*--------------------------------*- C++ -*----------------------------------*\
| =========                 |                                                 |
| \\      /  F ield         | foam-extend: Open Source CFD                    |
|  \\    /   O peration     | Version:     5.0                                |
|   \\  /    A nd           | Web:         http://www.foam-extend.org         |
|    \\/     M anipulation  |                                                 |
\*---------------------------------------------------------------------------*/
FoamFile
{
    version     2.0;
    format      ascii;
    class       surfaceScalarField;
    location    "0.05";
    object      phi;
}
// * * * * * * * * * * * * * * * * * * * * * * * * * * * * * * * * * * * * * //

dimensions      [0 3 -1 0 0 0 0];

internalField   nonuniform List<scalar> 
7860
(
0.00545856
-0.000458557
0.0349577
-0.0294985
0.0646692
-0.0297109
0.0892738
-0.024604
0.113023
-0.0237489
0.142452
-0.0294285
0.184705
-0.0422515
0.215724
-0.0310189
0.231781
-0.0160562
0.260551
-0.028769
0.265598
-0.00504605
0.237726
0.0278724
0.222477
0.0152505
0.202713
0.019765
0.176176
0.026538
0.17482
0.00135722
0.174613
0.000207609
0.19174
-0.0171261
0.222199
-0.0304572
0.283993
-0.0617931
0.321037
-0.0370427
0.293587
0.0274512
0.290739
0.00284934
0.290666
7.40519e-05
0.308811
-0.0181439
0.349626
-0.0408139
0.367267
-0.0176402
0.363259
0.00400932
0.323271
0.0399891
0.287329
0.0359433
0.278574
0.00875583
0.283811
-0.00523675
0.288492
-0.00468021
0.292786
-0.00429317
0.304437
-0.0116502
0.328669
-0.0242313
0.365282
-0.0366125
0.359897
0.0053861
0.321796
0.0381011
0.306634
0.015163
0.315745
-0.00911128
0.342794
-0.0270481
0.347445
-0.00465018
0.333791
0.0136536
0.324223
0.00956903
0.314252
0.00997059
0.310422
0.00383064
0.316703
-0.00628097
0.352449
-0.0357456
0.362067
-0.00961864
0.320088
0.0419798
0.286351
0.0337369
0.272077
0.0142736
0.274095
-0.00201767
0.279673
-0.0055779
0.280902
-0.00122874
0.294954
-0.0140528
0.303051
-0.00809703
0.307024
-0.00397298
0.337998
-0.0309733
0.369621
-0.0316236
0.363943
0.00567845
0.326133
0.0378095
0.29641
0.029723
0.278266
0.0181433
0.269162
0.00910368
0.272843
-0.00368064
0.291136
-0.0182937
0.306778
-0.0156414
0.317733
-0.0109554
0.346084
-0.0283515
0.365155
-0.019071
0.337839
0.0273155
0.299722
0.0381163
0.278409
0.0213133
0.284193
-0.00578489
0.303512
-0.0193187
0.324888
-0.0213766
0.340193
-0.0153049
0.346107
-0.00591497
0.336774
0.00933343
0.313124
0.0236496
0.323121
-0.00999731
0.352907
-0.0297865
0.375448
-0.0225412
0.415063
-0.0396158
0.466221
-0.0511586
0.478727
-0.0125059
0.469456
0.00927079
0.450115
0.0193406
0.426634
0.0234806
0.401889
0.0247452
0.391559
0.0103293
0.400306
-0.00874703
0.404344
-0.00403757
0.425948
-0.021605
0.452588
-0.0266394
0.435352
0.017236
0.41898
0.016372
-0.0163511
0.0722442
-0.0677022
0.160662
-0.117915
0.245615
-0.114662
0.318411
-0.0973992
0.373054
-0.0783902
0.449457
-0.10583
0.547112
-0.139905
0.596015
-0.0799197
0.636362
-0.0564016
0.687406
-0.0798117
0.692322
-0.00996038
0.655472
0.0647242
0.589454
0.0812712
0.580561
0.0286592
0.576559
0.0305426
0.529343
0.048575
0.54286
-0.0133075
0.596384
-0.0706475
0.641093
-0.0751635
0.684841
-0.105539
0.733071
-0.0852703
0.75444
0.00608421
0.763904
-0.00661186
0.764949
-0.000968631
0.76851
-0.0217032
0.815805
-0.0881068
0.847253
-0.0490855
0.794862
0.056402
0.754879
0.079974
0.749012
0.0418126
0.718434
0.0393349
0.722216
-0.00901697
0.745535
-0.0279974
0.75394
-0.0126963
0.75787
-0.015579
0.790063
-0.0564235
0.815831
-0.0623793
0.80631
0.0149084
0.791918
0.052494
0.790567
0.0165149
0.805254
-0.0237969
0.828694
-0.0504878
0.828669
-0.00462412
0.778756
0.0635671
0.714613
0.0737121
0.730372
-0.00578804
0.772349
-0.0381454
0.785092
-0.0190237
0.794637
-0.0452902
0.7954
-0.0103815
0.770921
0.0664584
0.714059
0.0905996
0.68741
0.0409226
0.664137
0.0212553
0.642943
0.0156156
0.678988
-0.0372739
0.736901
-0.0719658
0.763514
-0.0347094
0.784107
-0.0245667
0.812034
-0.0589001
0.82203
-0.0416196
0.775218
0.0524896
0.742015
0.0710127
0.744282
0.0274556
0.71608
0.046345
0.68117
0.0440134
0.682359
-0.00486987
0.738038
-0.0739737
0.781978
-0.0595818
0.797372
-0.02635
0.805975
-0.0369548
0.783569
0.00333459
0.769022
0.0418624
0.765285
0.0418529
0.742043
0.044554
0.728044
0.00821389
0.751605
-0.0428809
0.803245
-0.0730167
0.840525
-0.0525855
0.847567
-0.0129575
0.82834
0.028559
0.80989
0.0420991
0.810827
-0.0109351
0.86329
-0.0822504
0.935587
-0.0948387
0.998268
-0.102297
1.07539
-0.128285
1.11269
-0.0497996
1.10506
0.0168939
1.06704
0.0573641
1.0124
0.0781181
0.955954
0.0811919
0.925551
0.0407327
0.933638
-0.0168348
0.950308
-0.0207074
0.982859
-0.0541562
1.00772
-0.0515018
0.974698
0.0502587
0.9
0.09107
0.0130472
0.146899
-0.2096
0.285509
-0.256524
0.411741
-0.240893
0.522813
-0.208469
0.622131
-0.177708
0.712501
-0.196199
0.801609
-0.229012
0.878082
-0.156392
0.91879
-0.0971078
0.928317
-0.0893372
0.892161
0.0261981
0.895046
0.0618403
0.910329
0.0659901
0.931656
0.00733407
0.949123
0.0130772
0.927608
0.0700923
0.908833
0.00546956
0.870046
-0.031858
0.906852
-0.111967
0.959484
-0.15817
0.9711
-0.0968836
0.994146
-0.0169599
1.0082
-0.0206604
0.981759
0.0254715
1.02114
-0.0610851
1.06172
-0.128686
1.05422
-0.0415832
1.02565
0.0849766
1.0081
0.0975238
1.0109
0.0390136
0.978646
0.071595
0.950986
0.0186444
0.969645
-0.0466547
1.00443
-0.0474764
1.00982
-0.0209684
1.00213
-0.0487311
1.03165
-0.0919028
1.02276
0.0237975
0.994195
0.0810617
1.0329
-0.0221895
1.05345
-0.0443433
1.0341
-0.0311384
1.00219
0.0272868
0.951698
0.114059
0.913022
0.112388
0.967608
-0.0603732
1.02331
-0.0938522
1.0459
-0.0416123
1.04161
-0.0409923
1.04405
-0.0128241
1.02788
0.0826258
0.952358
0.166123
0.913403
0.0798777
0.878921
0.0557372
0.870574
0.023963
0.930863
-0.0975634
0.98619
-0.127292
1.01343
-0.0619481
1.03332
-0.0444546
1.0529
-0.0784867
1.00551
0.00577027
0.953919
0.104083
0.963878
0.0610528
0.983331
0.00800224
0.979643
0.0500329
0.950987
0.0726694
0.98109
-0.0349732
1.03766
-0.130545
1.04987
-0.071794
1.03727
-0.01375
1.00156
-0.00124701
0.994051
0.0108462
1.02788
0.00802809
1.04129
0.0284464
1.02783
0.0580121
1.01412
0.0219213
1.05993
-0.0886842
1.11638
-0.129471
1.14036
-0.0765697
1.15544
-0.0280383
1.10297
0.0810361
1.08145
0.0636146
1.1272
-0.0566824
1.19634
-0.151389
1.265
-0.163504
1.31319
-0.150488
1.34517
-0.160264
1.36957
-0.0741995
1.37659
0.00987319
1.33738
0.0965706
1.27747
0.138025
1.24696
0.111707
1.23766
0.0500315
1.22873
-0.00790385
1.24515
-0.0371281
1.25535
-0.0643615
1.24983
-0.0459816
1.20051
0.0995839
1.07967
0.211909
0.0777643
0.195295
-0.399894
0.361048
-0.422277
0.507546
-0.38739
0.638519
-0.339441
0.751106
-0.290294
0.834788
-0.279879
0.87255
-0.266772
0.947903
-0.231744
1.02465
-0.17385
1.02044
-0.0851251
1.05849
-0.011855
1.099
0.0213296
1.16261
0.00238623
1.23461
-0.0646676
1.2182
0.0294924
1.19287
0.0954217
1.13303
0.0653144
1.08495
0.0162238
1.1325
-0.159516
1.17532
-0.200989
1.21539
-0.136952
1.19924
-0.00080717
1.10993
0.0686544
1.13566
-0.00026304
1.20199
-0.127414
1.20047
-0.127166
1.15444
0.00445457
1.13309
0.106323
1.16502
0.0655947
1.15615
0.0478891
1.09805
0.129697
1.09904
0.0176526
1.14187
-0.0894834
1.13886
-0.0444647
1.10516
0.0127398
1.11366
-0.0572379
1.12909
-0.10733
1.10865
0.0442435
1.11067
0.0790354
1.13463
-0.0461456
1.16671
-0.0764182
1.18253
-0.0469628
1.11396
0.095857
1.04956
0.17846
1.0673
0.0946452
1.10292
-0.0959894
1.14002
-0.130951
1.17685
-0.0784447
1.19124
-0.0553827
1.2033
-0.0248824
1.18705
0.0988774
1.13455
0.218619
1.06935
0.145086
1.03268
0.0923992
1.06766
-0.0110143
1.10969
-0.139596
1.13679
-0.154386
1.12369
-0.0488472
1.12911
-0.0498763
1.16069
-0.110063
1.11932
0.0471335
1.08108
0.142326
1.08395
0.0581769
1.11129
-0.0193285
1.13591
0.0254111
1.16135
0.047228
1.1834
-0.0570307
1.14847
-0.0956148
1.14159
-0.0649142
1.13384
-0.00599505
1.1213
0.0112966
1.16519
-0.0330526
1.20109
-0.0278685
1.2065
0.023034
1.18703
0.0774861
1.21348
-0.00453399
1.24051
-0.115712
1.24153
-0.130492
1.30672
-0.14176
1.3591
-0.0804161
1.34827
0.0918603
1.3082
0.103688
1.3551
-0.103588
1.44914
-0.245425
1.46315
-0.177514
1.44252
-0.129858
1.4879
-0.205646
1.49794
-0.0842362
1.47256
0.0352458
1.44675
0.122384
1.41026
0.17451
1.40746
0.114507
1.40536
0.0521296
1.40187
-0.00440806
1.37935
-0.0146104
1.33787
-0.0228821
1.31809
-0.0261981
1.27396
0.143707
1.09276
0.393115
0.190535
0.220162
-0.615056
0.405623
-0.607737
0.567922
-0.549687
0.706078
-0.477596
0.813766
-0.397981
0.88915
-0.355263
0.919402
-0.297022
0.988844
-0.301185
1.03621
-0.221216
1.0933
-0.142214
1.17466
-0.0932165
1.25094
-0.0549457
1.34331
-0.0899821
1.36213
-0.0834847
1.35316
0.0384656
1.31158
0.137002
1.32908
0.0478097
1.37681
-0.0315029
1.33866
-0.121365
1.28134
-0.143668
1.30968
-0.165283
1.31739
-0.00852128
1.22366
0.162388
1.21376
0.00963816
1.20967
-0.123321
1.20254
-0.120035
1.19728
0.00971893
1.18603
0.117574
1.22253
0.0290997
1.22654
0.0438733
1.21391
0.142334
1.18031
0.0512518
1.17331
-0.0824781
1.16089
-0.0320464
1.1738
-0.000175499
1.20936
-0.0927948
1.18331
-0.0812793
1.17133
0.0562292
1.17183
0.0785387
1.16514
-0.0394565
1.16313
-0.0744113
1.20221
-0.0860377
1.21349
0.0845696
1.15584
0.236113
1.15958
0.0909098
1.18235
-0.118765
1.18054
-0.129138
1.18942
-0.087324
1.23109
-0.097057
1.27024
-0.0640299
1.2486
0.12052
1.22356
0.24366
1.18073
0.187918
1.18909
0.0840331
1.24071
-0.0626291
1.24788
-0.146771
1.25745
-0.163958
1.26481
-0.0562013
1.24402
-0.0290907
1.19341
-0.0594548
1.18336
0.0571821
1.18134
0.144352
1.14907
0.090449
1.17551
-0.0457787
1.22723
-0.0263041
1.25074
0.023717
1.22579
-0.0320809
1.21926
-0.0890806
1.20948
-0.0551383
1.19453
0.0089585
1.21508
-0.00925859
1.25995
-0.077922
1.30046
-0.0683826
1.29845
0.025048
1.29573
0.0802067
1.30484
-0.0136463
1.35161
-0.162484
1.37631
-0.155194
1.40793
-0.17338
1.42731
-0.099797
1.43262
0.0865535
1.46022
0.0760847
1.49512
-0.138484
1.55142
-0.301734
1.56967
-0.195758
1.5616
-0.121792
1.53885
-0.182894
1.52187
-0.0672547
1.48458
0.07253
1.47043
0.136541
1.47784
0.167098
1.45364
0.138706
1.45791
0.047863
1.43829
0.0152102
1.37902
0.0446563
1.30188
0.0542596
1.24959
0.0260895
1.20257
0.190724
1.07246
0.523232
0.267572
0.21945
-0.829506
0.400214
-0.7885
0.556245
-0.705718
0.690934
-0.612284
0.802695
-0.509741
0.886303
-0.43887
0.94987
-0.360588
0.98727
-0.338584
1.04163
-0.275578
1.11463
-0.215205
1.22796
-0.206554
1.34081
-0.167789
1.35777
-0.106942
1.31713
-0.0428432
1.35412
0.00147975
1.42574
0.0653798
1.44892
0.0246301
1.45396
-0.0365382
1.39543
-0.0628326
1.29956
-0.0478026
1.24069
-0.106407
1.30035
-0.0681805
1.33031
0.132428
1.27926
0.0606908
1.23406
-0.0781195
1.17102
-0.056988
1.14994
0.0307912
1.1958
0.0717193
1.22231
0.00259124
1.23333
0.0328559
1.2425
0.133168
1.21406
0.079695
1.15224
-0.0206625
1.16349
-0.0432965
1.21369
-0.050371
1.21386
-0.092965
1.20555
-0.0729722
1.22359
0.0381972
1.21651
0.0856156
1.14933
0.0277264
1.15082
-0.0758997
1.19541
-0.130628
1.22089
0.0590888
1.21313
0.243874
1.19027
0.113769
1.19927
-0.127765
1.1901
-0.119967
1.2096
-0.106824
1.23353
-0.120987
1.23405
-0.064545
1.24602
0.108548
1.2613
0.228383
1.28718
0.162032
1.31826
0.0529585
1.33022
-0.0745892
1.29938
-0.115937
1.2501
-0.114674
1.26443
-0.0705372
1.26701
-0.0316632
1.19967
0.00788529
1.20677
0.0500766
1.22542
0.1257
1.1884
0.12747
1.1704
-0.0277749
1.21793
-0.073832
1.27218
-0.0305367
1.27347
-0.0333689
1.24097
-0.0565833
1.23639
-0.0505631
1.22654
0.0188092
1.23466
-0.0173761
1.26421
-0.107469
1.2765
-0.0806761
1.3093
-0.00774841
1.32586
0.0636465
1.31905
-0.00684083
1.36266
-0.206093
1.4464
-0.238936
1.47147
-0.198447
1.44349
-0.0718231
1.45544
0.0746041
1.47975
0.051777
1.46657
-0.1253
1.461
-0.296174
1.49484
-0.22959
1.53171
-0.158668
1.5031
-0.154283
1.48238
-0.0465306
1.43586
0.119045
1.42605
0.146356
1.44416
0.14898
1.41067
0.172195
1.39162
0.0669146
1.36736
0.0394671
1.29029
0.121733
1.17144
0.173105
1.08022
0.117313
1.03963
0.231314
1.00839
0.554474
0.27454
0.198705
-1.02321
0.346819
-0.936612
0.468084
-0.826982
0.579554
-0.723754
0.698141
-0.628327
0.781443
-0.522171
0.837366
-0.41651
0.894277
-0.395494
0.979419
-0.360718
1.06593
-0.301718
1.17959
-0.320208
1.28311
-0.271309
1.2862
-0.110027
1.24911
-0.0057525
1.29828
-0.0476953
1.4022
-0.0385336
1.42715
-0.000322843
1.40838
-0.017765
1.36869
-0.0231416
1.31254
0.00835213
1.20479
0.00134144
1.19083
-0.0542137
1.25405
0.0692045
1.22646
0.088283
1.17982
-0.0314782
1.11464
0.00819545
1.11344
0.0319916
1.17448
0.0106802
1.16823
0.00884248
1.13431
0.0667744
1.14807
0.119409
1.15314
0.074628
1.13401
-0.00153334
1.12532
-0.0345968
1.15119
-0.0762485
1.17631
-0.118079
1.16268
-0.0593436
1.18843
0.0124459
1.20428
0.0697674
1.1726
0.0594131
1.16561
-0.0689125
1.15778
-0.122797
1.16565
0.0512148
1.18621
0.223316
1.19199
0.107994
1.19739
-0.133171
1.20542
-0.127991
1.21397
-0.115372
1.19267
-0.0996861
1.18656
-0.0584357
1.19424
0.10087
1.22819
0.194429
1.28727
0.10295
1.32207
0.0181597
1.32658
-0.0790945
1.28452
-0.0738765
1.22177
-0.051932
1.24342
-0.0921865
1.25825
-0.0464897
1.18655
0.0795818
1.18797
0.0486551
1.20615
0.107526
1.16665
0.166971
1.13514
0.00373534
1.1625
-0.101201
1.22173
-0.0897623
1.25088
-0.0625199
1.25698
-0.062684
1.22076
-0.0143466
1.20921
0.0303618
1.2016
-0.00977046
1.19525
-0.101114
1.20112
-0.0865503
1.21973
-0.0263566
1.27719
0.0061858
1.29123
-0.0208777
1.26975
-0.184616
1.3025
-0.271688
1.3768
-0.272745
1.38855
-0.0835713
1.39916
0.0639881
1.39833
0.0526081
1.36373
-0.0906966
1.33942
-0.271865
1.36276
-0.252928
1.37288
-0.168794
1.34838
-0.129779
1.34996
-0.0481159
1.34204
0.126963
1.34535
0.143048
1.3389
0.155428
1.30744
0.203652
1.26805
0.106312
1.19069
0.116826
1.08971
0.222713
0.989019
0.273793
0.850466
0.255867
0.782976
0.298803
0.819713
0.517737
0.230733
0.166634
-1.18484
0.299027
-1.069
0.41156
-0.939514
0.511571
-0.823764
0.593289
-0.710044
0.682635
-0.611517
0.774499
-0.508373
0.812824
-0.433818
0.883424
-0.431317
0.9657
-0.383993
1.05563
-0.410139
1.13708
-0.352752
1.15726
-0.13021
1.16365
-0.0121359
1.14235
-0.0264033
1.20494
-0.101114
1.28305
-0.0784307
1.26484
0.00044592
1.22768
0.0140153
1.17747
0.0585677
1.10162
0.0771905
1.00901
0.0383915
1.04094
0.0372832
1.09909
0.0301321
1.07484
-0.00722258
1.02103
0.0620057
1.02642
0.0266017
1.06083
-0.0237259
1.03261
0.0370557
0.998198
0.101191
0.998055
0.119553
1.0286
0.0440882
1.05036
-0.0232926
1.08389
-0.068134
1.10182
-0.0941749
1.07887
-0.0951285
1.04807
-0.0285394
1.0707
-0.0101861
1.11521
0.025261
1.12241
0.0522174
1.10876
-0.0552615
1.07152
-0.0855613
1.07681
0.045921
1.12584
0.174289
1.14274
0.0910925
1.1173
-0.107732
1.12833
-0.139017
1.12606
-0.113103
1.11408
-0.087707
1.1014
-0.0457549
1.07539
0.12688
1.14192
0.127899
1.21574
0.0291332
1.23253
0.00137243
1.2258
-0.0723646
1.19691
-0.0449888
1.14913
-0.00415894
1.16457
-0.107617
1.18495
-0.0668791
1.14661
0.117927
1.09608
0.0991881
1.09492
0.108683
1.10897
0.152923
1.06039
0.0523153
1.06907
-0.109882
1.13338
-0.154075
1.17338
-0.102523
1.18501
-0.0743142
1.15956
0.0111071
1.14745
0.0424752
1.14706
-0.00938197
1.09349
-0.0475436
1.08258
-0.0756459
1.11093
-0.0547037
1.16283
-0.0457218
1.19568
-0.053724
1.15702
-0.145957
1.179
-0.293672
1.19761
-0.291355
1.22406
-0.110017
1.27275
0.0152958
1.24446
0.0809004
1.21008
-0.0563221
1.17655
-0.238336
1.19214
-0.268519
1.18997
-0.166624
1.15515
-0.0949549
1.14987
-0.0428377
1.1536
0.123236
1.15955
0.137097
1.12719
0.187785
1.08012
0.250723
1.03717
0.149255
0.960364
0.193637
0.864656
0.318421
0.762071
0.376378
0.606826
0.411111
0.519633
0.385996
0.565101
0.472269
0.172089
0.130793
-1.31064
0.237095
-1.17531
0.32704
-1.02946
0.407431
-0.904154
0.481826
-0.784439
0.553495
-0.683185
0.63794
-0.592816
0.701082
-0.49696
0.765831
-0.496064
0.852676
-0.470837
0.907349
-0.464811
0.907174
-0.352576
0.937182
-0.160216
0.987465
-0.0624175
0.98175
-0.020687
0.97331
-0.0926724
1.0022
-0.107316
1.00745
-0.00480902
0.95602
0.0654496
0.886027
0.128562
0.823488
0.139731
0.761419
0.100462
0.792348
0.00635543
0.867001
-0.0445196
0.869877
-0.0100976
0.862393
0.0694912
0.851458
0.0375387
0.830596
-0.00286282
0.784035
0.0836172
0.805084
0.0801438
0.868302
0.0563367
0.863296
0.0490947
0.879076
-0.0390713
0.932056
-0.121112
0.939324
-0.101442
0.917888
-0.0736918
0.885136
0.00421351
0.867962
0.00698861
0.920836
-0.0276122
0.963588
0.00946609
0.964829
-0.0565027
0.937895
-0.0586265
0.959012
0.0248046
1.03434
0.0989577
1.05457
0.0708684
1.04631
-0.0994694
1.05415
-0.146858
1.04727
-0.106226
1.00727
-0.0477092
0.935142
0.026376
0.924608
0.137415
1.00509
0.0474184
1.06361
-0.0293931
1.05266
0.0123264
0.995754
-0.0154585
0.977879
-0.0271129
1.00668
-0.0329651
1.01869
-0.119623
1.02083
-0.0690171
1.00724
0.131519
0.968985
0.137438
0.98127
0.096399
1.01899
0.115206
1.01136
0.0599371
0.980182
-0.0786992
0.999987
-0.173881
1.04767
-0.150204
1.04302
-0.0696651
0.98383
0.0702957
0.942177
0.0841281
0.951102
-0.0183079
0.961415
-0.0578564
0.967922
-0.0821529
0.953058
-0.0398401
1.0027
-0.0953613
1.05968
-0.110704
1.0491
-0.135382
1.04821
-0.292779
1.04558
-0.28873
1.03991
-0.104348
1.06961
-0.0144021
1.07595
0.0745654
1.03639
-0.0167707
0.975283
-0.177227
0.941062
-0.234298
0.92949
-0.155053
0.898618
-0.064083
0.899928
-0.0441483
0.930357
0.092807
0.909488
0.157967
0.888347
0.208926
0.86975
0.26932
0.782624
0.236381
0.689133
0.287127
0.611471
0.396083
0.499314
0.488535
0.339522
0.570902
0.230613
0.494906
0.283447
0.419435
0.0877806
0.0922891
-1.39793
0.165972
-1.24899
0.221195
-1.08468
0.27854
-0.961499
0.341657
-0.847555
0.405887
-0.747414
0.467884
-0.654812
0.536253
-0.565328
0.60275
-0.562561
0.644899
-0.512984
0.653908
-0.473819
0.671859
-0.370526
0.691559
-0.179915
0.721842
-0.0926986
0.744042
-0.0428855
0.723623
-0.0722522
0.714571
-0.0982627
0.669121
0.0406427
0.589792
0.14478
0.556896
0.161459
0.506661
0.189968
0.479858
0.127266
0.523509
-0.0372947
0.537268
-0.0582769
0.498549
0.0286225
0.498285
0.0697566
0.530866
0.00495931
0.548351
-0.0203468
0.554052
0.0779174
0.581886
0.0523107
0.655878
-0.0176537
0.68658
0.018394
0.668985
-0.0214753
0.685839
-0.137966
0.700478
-0.11608
0.673546
-0.0467592
0.641596
0.0361642
0.649976
-0.00139034
0.715113
-0.0927486
0.759478
-0.0348989
0.772147
-0.0691712
0.749637
-0.0361152
0.764416
0.0100259
0.840591
0.022783
0.86515
0.0463095
0.827803
-0.0621217
0.826564
-0.145619
0.828577
-0.108239
0.781901
-0.00103337
0.729699
0.0785783
0.747044
0.12007
0.813349
-0.0188869
0.851073
-0.0671174
0.819649
0.043751
0.77616
0.0280309
0.763483
-0.0144362
0.762959
-0.0324414
0.741562
-0.0982261
0.738828
-0.0662836
0.765222
0.105125
0.751109
0.151551
0.790236
0.0572725
0.853856
0.0515853
0.861984
0.0518085
0.815026
-0.0317408
0.810682
-0.169538
0.851866
-0.191389
0.846689
-0.064488
0.800155
0.116829
0.712061
0.172222
0.680617
0.0131363
0.728161
-0.105401
0.757474
-0.111466
0.743458
-0.0258241
0.764394
-0.116298
0.829466
-0.175776
0.832113
-0.13803
0.793522
-0.254189
0.770802
-0.26601
0.79798
-0.131526
0.84889
-0.0653122
0.855562
0.0678932
0.82375
0.0150406
0.774105
-0.127583
0.697643
-0.157837
0.633662
-0.091072
0.595246
-0.0256674
0.599764
-0.0486671
0.644487
0.0480837
0.645393
0.157061
0.633621
0.220697
0.598435
0.304506
0.505412
0.329404
0.407583
0.384956
0.32778
0.475886
0.217831
0.598484
0.0637245
0.725009
-0.0370714
0.595702
-0.0316182
0.413982
0.0482442
0.0523526
-1.44528
0.09045
-1.28709
0.115131
-1.10936
0.143901
-0.990268
0.186552
-0.890206
0.234184
-0.795045
0.286167
-0.706794
0.341786
-0.620945
0.377965
-0.598739
0.389762
-0.52478
0.383177
-0.467232
0.404505
-0.391853
0.439853
-0.215262
0.43928
-0.0921244
0.435355
-0.038959
0.415686
-0.0525817
0.357149
-0.039725
0.292071
0.105723
0.235816
0.201036
0.209261
0.188016
0.200178
0.199052
0.177976
0.149469
0.168871
-0.0281876
0.156823
-0.0462279
0.114152
0.0712947
0.102971
0.080939
0.126012
-0.0180801
0.185976
-0.0803098
0.270274
-0.00637989
0.319983
0.00260291
0.369163
-0.0668328
0.406428
-0.0188698
0.410695
-0.0257404
0.41227
-0.13954
0.388308
-0.0921172
0.347843
-0.0062932
0.339713
0.0442954
0.373051
-0.0347277
0.445941
-0.165638
0.51055
-0.0995074
0.509782
-0.0684022
0.466788
0.00687886
0.476081
0.000733994
0.550452
-0.0515882
0.594081
0.00268067
0.590419
-0.0584591
0.551108
-0.106308
0.502436
-0.0595669
0.475955
0.025448
0.484799
0.0697336
0.519278
0.085592
0.555606
-0.0552149
0.589248
-0.100759
0.568014
0.064985
0.510102
0.0859429
0.493251
0.00241482
0.485241
-0.024432
0.451632
-0.0646173
0.442475
-0.0571259
0.443353
0.104247
0.440481
0.154422
0.501865
-0.00411105
0.589792
-0.0363419
0.618105
0.0234949
0.605081
-0.0187165
0.573519
-0.137977
0.570705
-0.188574
0.566001
-0.0597845
0.520317
0.162512
0.446466
0.246073
0.398408
0.0611937
0.424493
-0.131486
0.460852
-0.147826
0.493706
-0.0586781
0.522688
-0.145281
0.553505
-0.206594
0.545175
-0.1297
0.458691
-0.167705
0.401692
-0.209011
0.443712
-0.173548
0.514636
-0.136236
0.546172
0.0363567
0.53414
0.0270722
0.484966
-0.0784091
0.396835
-0.0697061
0.301014
0.00474872
0.242521
0.032825
0.246719
-0.0528647
0.287508
0.00729384
0.294878
0.149691
0.293246
0.222329
0.274562
0.32319
0.197236
0.406729
0.106951
0.475241
0.0346446
0.548192
-0.0720353
0.705164
-0.194336
0.84731
-0.288701
0.690066
-0.340614
0.465895
0.0418661
0.0116952
-1.45197
0.0146266
-1.29002
0.00984405
-1.10458
0.00729378
-0.987717
0.0216682
-0.904579
0.044582
-0.817958
0.0768048
-0.739016
0.110603
-0.654743
0.116757
-0.604892
0.105483
-0.513505
0.0954293
-0.457176
0.103134
-0.399556
0.128151
-0.240277
0.134023
-0.0979951
0.103606
-0.00854077
0.0467571
0.00426798
-0.0146536
0.0216871
-0.0802358
0.171307
-0.140893
0.261695
-0.17721
0.224335
-0.180032
0.201875
-0.184822
0.154261
-0.210337
-0.00267171
-0.238663
-0.0179003
-0.281367
0.114
-0.313171
0.112744
-0.322031
-0.00921899
-0.251425
-0.150914
-0.129773
-0.128031
-0.0692537
-0.0579153
-0.0267275
-0.109358
0.0458306
-0.0914268
0.0636855
-0.0435943
0.0360984
-0.111952
-0.0083446
-0.0476732
-0.0630691
0.0484322
-0.0599991
0.0412262
0.00386681
-0.0985929
0.0956097
-0.257381
0.167896
-0.171793
0.146833
-0.047339
0.0829679
0.0707446
0.0932653
-0.009563
0.177317
-0.13564
0.244237
-0.0642387
0.25972
-0.0739414
0.208732
-0.0553198
0.13232
0.0168447
0.10246
0.0553089
0.136869
0.0353245
0.177749
0.0447122
0.193067
-0.070533
0.230021
-0.137714
0.238413
0.0565935
0.201475
0.122881
0.172258
0.0316313
0.127816
0.0200099
0.0685509
-0.00535218
0.0400941
-0.0286691
0.0407007
0.10364
0.0609973
0.134125
0.139421
-0.0825347
0.258537
-0.155459
0.297157
-0.015125
0.273468
0.00497288
0.230629
-0.0951384
0.199805
-0.15775
0.177904
-0.0378832
0.153776
0.18664
0.108724
0.291124
0.053559
0.116359
0.0607158
-0.138643
0.113362
-0.200473
0.159932
-0.105248
0.191973
-0.177322
0.209175
-0.223796
0.173419
-0.0939438
0.0662836
-0.0605708
-0.0109793
-0.131749
0.0235523
-0.20808
0.112974
-0.225659
0.1723
-0.0229695
0.153639
0.0457326
0.0955531
-0.0203234
0.011107
0.0147396
-0.0853297
0.101185
-0.145628
0.0931231
-0.143357
-0.0551366
-0.10799
-0.0280731
-0.0931339
0.134834
-0.0822221
0.211417
-0.078974
0.319942
-0.125948
0.453703
-0.191499
0.540792
-0.268094
0.624787
-0.358916
0.795986
-0.445922
0.934315
-0.54491
0.789054
-0.603907
0.524892
0.0367638
-0.0323452
-1.41463
-0.0702941
-1.25207
-0.0935181
-1.08135
-0.109885
-0.97135
-0.124805
-0.889658
-0.140129
-0.802634
-0.150182
-0.728963
-0.148765
-0.656159
-0.163956
-0.5897
-0.188487
-0.488973
-0.210241
-0.435421
-0.214817
-0.394979
-0.20239
-0.252703
-0.209178
-0.0912059
-0.263242
0.0455241
-0.349807
0.0908348
-0.416917
0.088799
-0.457483
0.211874
-0.50416
0.308373
-0.55952
0.279697
-0.571128
0.213483
-0.566751
0.149885
-0.594011
0.02459
-0.635954
0.0240443
-0.677501
0.155548
-0.709666
0.144911
-0.730394
0.0115097
-0.676646
-0.204661
-0.561416
-0.24326
-0.494495
-0.124835
-0.460208
-0.143644
-0.375727
-0.175906
-0.347102
-0.0722185
-0.389094
-0.069958
-0.433365
-0.00340172
-0.476097
0.0911648
-0.46166
0.0267901
-0.401051
-0.159202
-0.326847
-0.331583
-0.254862
-0.243777
-0.262124
-0.040077
-0.301985
0.110606
-0.288013
-0.0235342
-0.217424
-0.206229
-0.151387
-0.130275
-0.136038
-0.0892899
-0.182899
-0.00845831
-0.248574
0.0825203
-0.273208
0.0799427
-0.23649
-0.00139375
-0.19822
0.00644277
-0.226919
-0.0418338
-0.198548
-0.166085
-0.130386
-0.0115687
-0.146328
0.138824
-0.196749
0.0820515
-0.257993
0.0812541
-0.326891
0.0635461
-0.361807
0.00624612
-0.348583
0.0904171
-0.311299
0.0968412
-0.247983
-0.145851
-0.13286
-0.270582
-0.0749615
-0.0730234
-0.103331
0.033342
-0.167365
-0.0311042
-0.23587
-0.089246
-0.262953
-0.0108005
-0.24016
0.163846
-0.23645
0.287414
-0.274669
0.154578
-0.293466
-0.119846
-0.260425
-0.233515
-0.223108
-0.142565
-0.216958
-0.183473
-0.213606
-0.227148
-0.242399
-0.0651515
-0.329266
0.0262957
-0.390709
-0.0703057
-0.374913
-0.223876
-0.303767
-0.296805
-0.243843
-0.0828942
-0.277568
0.0794576
-0.327502
0.02961
-0.381967
0.0692038
-0.45788
0.177098
-0.508164
0.143407
-0.510388
-0.0529123
-0.498963
-0.0394989
-0.480594
0.116465
-0.454706
0.185528
-0.439552
0.304788
-0.450727
0.464877
-0.505107
0.595172
-0.577055
0.696735
-0.6528
0.871731
-0.683823
0.965338
-0.714733
0.819963
-0.750957
0.561117
0.0292182
-0.0784336
-1.33119
-0.157507
-1.17299
-0.22244
-1.01642
-0.279233
-0.914556
-0.323522
-0.845368
-0.354645
-0.771511
-0.384243
-0.699364
-0.414386
-0.626016
-0.454128
-0.549958
-0.493479
-0.449621
-0.527064
-0.401834
-0.545938
-0.376105
-0.546939
-0.2517
-0.567138
-0.0710066
-0.630677
0.109064
-0.731241
0.191401
-0.801948
0.159507
-0.81264
0.222567
-0.848949
0.344683
-0.910479
0.341229
-0.93611
0.239115
-0.936663
0.150439
-0.954882
0.042811
-1.00511
0.0742725
-1.05335
0.203792
-1.0813
0.17286
-1.09462
0.024833
-1.05388
-0.245401
-0.957851
-0.339288
-0.89026
-0.192425
-0.862267
-0.171636
-0.789812
-0.24836
-0.762238
-0.0997921
-0.814794
-0.0174016
-0.848096
0.0299019
-0.867684
0.110753
-0.843723
0.00283054
-0.797534
-0.205391
-0.752919
-0.376197
-0.694901
-0.301795
-0.677198
-0.0577795
-0.685523
0.118931
-0.675685
-0.0333718
-0.607152
-0.274762
-0.538683
-0.198744
-0.540886
-0.0870866
-0.578156
0.0288118
-0.629702
0.134066
-0.645537
0.0957773
-0.610384
-0.0365466
-0.571907
-0.0320343
-0.608662
-0.00507872
-0.602897
-0.171849
-0.502569
-0.111897
-0.491885
0.128139
-0.563542
0.153708
-0.631676
0.149388
-0.695937
0.127807
-0.742005
0.0523139
-0.719402
0.0678144
-0.665615
0.0430538
-0.617331
-0.194135
-0.51722
-0.370693
-0.462919
-0.127324
-0.493018
0.0634408
-0.560294
0.036172
-0.641534
-0.00800682
-0.666488
0.0141535
-0.612025
0.109383
-0.546767
0.222155
-0.561636
0.169447
-0.632524
-0.0489584
-0.61973
-0.246309
-0.591111
-0.171185
-0.634098
-0.140486
-0.65665
-0.204597
-0.680545
-0.0412559
-0.727538
0.0732883
-0.77783
-0.020014
-0.771251
-0.230456
-0.693115
-0.374941
-0.654208
-0.121802
-0.707693
0.132941
-0.740941
0.0628582
-0.772658
0.10092
-0.830736
0.235175
-0.865604
0.178275
-0.895283
-0.0232334
-0.885897
-0.0488852
-0.865183
0.0957514
-0.842698
0.163043
-0.762515
0.224605
-0.73657
0.438932
-0.79141
0.650012
-0.852177
0.757502
-0.88811
0.907663
-0.892327
0.969555
-0.876808
0.804444
-0.839019
0.523328
0.00716339
-0.12549
-1.2007
-0.244616
-1.05387
-0.345148
-0.915888
-0.432542
-0.827161
-0.502523
-0.775387
-0.554996
-0.719037
-0.60868
-0.645679
-0.67053
-0.564166
-0.733882
-0.486605
-0.786091
-0.397411
-0.831913
-0.356012
-0.872857
-0.33516
-0.898093
-0.226463
-0.926233
-0.042866
-0.978596
0.161428
-1.07117
0.283972
-1.14352
0.231866
-1.13945
0.218494
-1.17652
0.381755
-1.23083
0.395542
-1.26851
0.276799
-1.29128
0.173209
-1.31257
0.0640969
-1.35348
0.115184
-1.38844
0.238753
-1.44312
0.227541
-1.43759
0.0193031
-1.39165
-0.291344
-1.2971
-0.433836
-1.22743
-0.262096
-1.24465
-0.154407
-1.24853
-0.244487
-1.20623
-0.142089
-1.19864
-0.0249925
-1.20228
0.0335453
-1.19331
0.101784
-1.21402
0.0235398
-1.1658
-0.253607
-1.1311
-0.410898
-1.14494
-0.287957
-1.07804
-0.124674
-1.03181
0.0727025
-1.05097
-0.0142176
-1.03855
-0.28718
-0.948791
-0.288503
-0.911216
-0.124661
-0.975109
0.0927044
-1.02109
0.180052
-1.02355
0.0982344
-0.983336
-0.0767619
-0.931113
-0.0842568
-0.959983
0.0237913
-0.991322
-0.14051
-0.942276
-0.160943
-0.874092
0.059956
-0.894421
0.174037
-0.998268
0.253235
-1.07927
0.208813
-1.0957
0.0687353
-1.06429
0.0364049
-1.03243
0.0111933
-0.998057
-0.228505
-0.951314
-0.417436
-0.866135
-0.212504
-0.847156
0.0444619
-0.913192
0.102208
-0.983034
0.0618357
-1.02126
0.0523786
-0.95218
0.0403027
-0.859393
0.129368
-0.874714
0.184768
-0.972126
0.0484534
-1.01944
-0.198995
-0.971894
-0.218732
-0.993868
-0.118513
-1.05538
-0.143088
-1.0915
-0.00512829
-1.10847
0.0902579
-1.11871
-0.00978332
-1.14978
-0.199385
-1.14193
-0.382787
-1.0681
-0.195632
-1.06085
0.125688
-1.12329
0.125302
-1.1445
0.122126
-1.16395
0.254633
-1.20497
0.21929
-1.24597
0.017763
-1.26774
-0.0271133
-1.24779
0.0758004
-1.20893
0.124181
-1.11992
0.135595
-1.04094
0.359955
-1.05066
0.659736
-1.08733
0.794167
-1.08261
0.902945
-1.04107
0.928018
-0.976299
0.739671
-0.890755
0.437785
-0.0259633
-0.171711
-1.02399
-0.326977
-0.898601
-0.459166
-0.7837
-0.570816
-0.71551
-0.661162
-0.685041
-0.741051
-0.639148
-0.827431
-0.559298
-0.915554
-0.476043
-0.993962
-0.408197
-1.05793
-0.333444
-1.11581
-0.29813
-1.17435
-0.276618
-1.22175
-0.179059
-1.2575
-0.00712434
-1.28713
0.191059
-1.36561
0.362453
-1.46888
0.335136
-1.49411
0.24373
-1.51604
0.403684
-1.58935
0.468853
-1.61421
0.301659
-1.61145
0.170448
-1.65819
0.110844
-1.71757
0.174561
-1.74435
0.265532
-1.75506
0.238256
-1.72209
-0.0136665
-1.70135
-0.312081
-1.67118
-0.46401
-1.61706
-0.316218
-1.60774
-0.16372
-1.66035
-0.191881
-1.68009
-0.122348
-1.6401
-0.0649803
-1.63957
0.033018
-1.60425
0.0664657
-1.59095
0.0102344
-1.5783
-0.266258
-1.5455
-0.443697
-1.51484
-0.318617
-1.47891
-0.160603
-1.46375
0.0575476
-1.46041
-0.0175618
-1.45516
-0.292429
-1.3703
-0.373366
-1.33067
-0.164289
-1.36909
0.131123
-1.38885
0.199815
-1.3903
0.0996828
-1.37504
-0.0920227
-1.32562
-0.133673
-1.33092
0.0290916
-1.39327
-0.0781586