/*--------------------------------*- C++ -*----------------------------------*\
| =========                 |                                                 |
| \\      /  F ield         | foam-extend: Open Source CFD                    |
|  \\    /   O peration     | Version:     5.0                                |
|   \\  /    A nd           | Web:         http://www.foam-extend.org         |
|    \\/     M anipulation  |                                                 |
\*---------------------------------------------------------------------------*/
FoamFile
{
    version     2.0;
    format      ascii;
    class       volVectorField;
    location    "0.05";
    object      U;
}
// * * * * * * * * * * * * * * * * * * * * * * * * * * * * * * * * * * * * * //

dimensions      [0 1 -1 0 0 0 0];

internalField   nonuniform List<vector> 
4000
(
(1.23555 0.395482 0)
(3.86573 -0.481391 0)
(9.98474 -0.597563 0)
(15.5973 -0.470836 0)
(20.6598 -0.453532 0)
(24.3564 -0.607185 0)
(33.6658 -1.12194 0)
(40.2637 -0.763316 0)
(44.3386 -0.390946 0)
(50.2601 -1.05089 0)
(53.9663 -0.369038 0)
(48.7688 0.915415 0)
(48.1309 0.729448 0)
(40.0154 0.908524 0)
(39.9264 0.801154 0)
(34.7444 0.230126 0)
(33.7438 0.0852609 0)
(36.0401 -0.71614 0)
(41.199 -0.885254 0)
(52.1584 -1.98808 0)
(58.5972 -1.14422 0)
(62.6564 0.906952 0)
(58.5919 0.0510574 0)
(58.1648 0.0683946 0)
(59.2467 -0.338806 0)
(66.239 -0.911142 0)
(73.0235 -0.73814 0)
(73.6172 -0.433814 0)
(66.5406 1.16695 0)
(62.0134 1.63251 0)
(57.909 0.344162 0)
(54.0672 -0.462927 0)
(57.3265 -0.131305 0)
(58.5729 0.0297782 0)
(59.7257 -0.35167 0)
(62.0995 -0.690149 0)
(71.7582 -1.11228 0)
(72.1143 -0.220136 0)
(66.2099 1.0665 0)
(63.7537 1.13983 0)
(63.6736 -0.115989 0)
(64.7151 -1.20178 0)
(69.4695 -0.436989 0)
(68.6227 0.200004 0)
(64.9918 0.436117 0)
(62.6807 0.735551 0)
(62.6971 0.295714 0)
(64.7991 -0.158492 0)
(66.6808 -1.1467 0)
(69.9843 -0.550077 0)
(68.5769 1.08804 0)
(62.0227 1.27371 0)
(54.9945 0.359538 0)
(55.2477 -0.320518 0)
(54.2673 -0.0557414 0)
(55.1342 0.401058 0)
(57.7637 -0.285254 0)
(60.3589 -0.383735 0)
(60.228 -0.128094 0)
(65.633 -0.790502 0)
(70.9938 -1.23605 0)
(73.8085 -0.173501 0)
(67.8983 1.16046 0)
(62.9347 1.33014 0)
(58.8402 0.657064 0)
(53.5067 0.15164 0)
(52.7513 0.0258878 0)
(56.5394 -0.290215 0)
(60.2677 -0.487703 0)
(62.3031 -0.541427 0)
(67.1718 -1.03486 0)
(71.4482 -0.850121 0)
(69.1843 0.870511 0)
(63.9087 1.58153 0)
(59.2357 0.735888 0)
(56.0258 -0.251945 0)
(57.2218 -0.404849 0)
(63.4407 -0.559266 0)
(65.6023 -0.440432 0)
(70.0609 -0.221024 0)
(67.7715 0.201956 0)
(64.6682 0.744111 0)
(64.427 -0.0138564 0)
(66.1406 -0.663605 0)
(72.3957 -0.64517 0)
(80.0516 -1.14123 0)
(87.7029 -1.57051 0)
(94.9176 -0.50027 0)
(95.5749 0.222304 0)
(92.8646 0.556734 0)
(87.6246 0.698636 0)
(82.3554 0.895432 0)
(79.6465 0.383333 0)
(78.002 -0.18542 0)
(80.9372 -0.113381 0)
(82.5633 -0.712113 0)
(88.5968 -0.841168 0)
(88.1407 0.345308 0)
(87.0414 0.182183 0)
(84.0396 -0.66369 0)
(9.53977 -1.23598 0)
(23.1807 -3.25879 0)
(40.8467 -3.2365 0)
(57.0654 -2.72025 0)
(70.9709 -2.25409 0)
(77.9224 -3.17761 0)
(103.163 -4.50392 0)
(115.762 -2.66018 0)
(120.499 -1.68062 0)
(136.322 -2.91039 0)
(138.785 -0.253918 0)
(134.128 2.56267 0)
(130.173 2.73681 0)
(104.598 1.55932 0)
(126.17 1.42398 0)
(109.584 1.16058 0)
(100.039 -0.606243 0)
(117.276 -2.28332 0)
(121.691 -2.64523 0)
(140.007 -4.20173 0)
(130.953 -2.86875 0)
(153.57 0.865776 0)
(152.972 -0.319158 0)
(153.001 0.0173079 0)
(154.204 -0.934159 0)
(155.306 -3.55717 0)
(170.578 -2.0295 0)
(168.255 1.78443 0)
(143.509 3.30556 0)
(157.384 1.72735 0)
(148.327 0.988336 0)
(139.463 -0.202764 0)
(146.983 -0.669401 0)
(151.825 -0.631992 0)
(151.178 -0.884622 0)
(151.818 -2.04812 0)
(167.18 -2.43866 0)
(156.595 0.644581 0)
(159.208 2.51911 0)
(159.101 0.653002 0)
(162.564 -0.976646 0)
(162.189 -1.98364 0)
(165.689 -0.500435 0)
(164.796 1.89972 0)
(147.074 2.39008 0)
(136.212 0.499613 0)
(155.401 -0.856542 0)
(157.436 -0.713449 0)
(162.679 -2.0052 0)
(149.886 -0.271287 0)
(160.451 2.69431 0)
(151.414 2.84613 0)
(136.932 1.19185 0)
(139.783 0.465723 0)
(125.9 0.531729 0)
(127.97 -0.755405 0)
(144.465 -2.12842 0)
(150.625 -1.0247 0)
(153.743 -0.714498 0)
(163.528 -2.51427 0)
(163.235 -2.09921 0)
(161.95 1.6134 0)
(143.283 3.14354 0)
(154.125 1.43257 0)
(147.596 1.60466 0)
(139.826 1.56141 0)
(130.96 -0.0334952 0)
(142.098 -2.52911 0)
(153.827 -2.02236 0)
(158.49 -1.14486 0)
(163.391 -1.73473 0)
(159.379 -0.0640721 0)
(147.454 2.1226 0)
(157.643 1.91352 0)
(152.491 1.48522 0)
(148.892 0.233579 0)
(141.727 -1.42043 0)
(157.952 -2.40375 0)
(162.624 -1.62879 0)
(172.937 -0.557262 0)
(165.492 1.00862 0)
(163.052 1.76874 0)
(165.401 -0.452375 0)
(160.504 -2.64805 0)
(181.607 -2.96666 0)
(195.396 -3.73869 0)
(206.124 -4.49825 0)
(219.274 -1.44101 0)
(224.634 0.664954 0)
(218.3 1.7957 0)
(209.046 2.41163 0)
(194.962 2.57323 0)
(188.779 1.18746 0)
(183.17 -0.745684 0)
(188.485 -0.701443 0)
(193.913 -1.98768 0)
(200.508 -2.1163 0)
(196.81 1.51144 0)
(194.327 2.1842 0)
(170.254 -0.42382 0)
(18.7808 -6.37832 0)
(43.7047 -8.92525 0)
(70.2223 -8.54372 0)
(94.1847 -7.36413 0)
(115.32 -6.27275 0)
(133.275 -7.6126 0)
(153.478 -9.2177 0)
(166.662 -5.85256 0)
(182.35 -3.97019 0)
(187.978 -4.11593 0)
(183.422 0.884933 0)
(169.415 3.67076 0)
(190.16 3.81274 0)
(173.652 1.08037 0)
(197.749 1.19602 0)
(186.215 2.70866 0)
(183.07 -0.419743 0)
(181.003 -2.44022 0)
(166.604 -4.86492 0)
(201.167 -6.75319 0)
(180.447 -4.57798 0)
(199.103 -0.502812 0)
(203.73 -0.759906 0)
(199.633 0.454648 0)
(193.826 -1.95884 0)
(217.018 -5.908 0)
(207.788 -2.4167 0)
(213.154 3.77072 0)
(191.132 4.83467 0)
(211.45 2.02018 0)
(198.71 2.80565 0)
(193.146 0.18672 0)
(184.846 -1.96194 0)
(203.542 -1.7256 0)
(199.674 -0.935491 0)
(203.978 -2.85771 0)
(199.814 -4.01782 0)
(210.575 1.24643 0)
(191.819 3.51181 0)
(207.145 -0.137915 0)
(211.52 -1.81897 0)
(212.699 -2.14292 0)
(197.345 0.466765 0)
(202.352 4.65049 0)
(178.481 4.8692 0)
(184.665 -1.48852 0)
(201.902 -3.2158 0)
(210.787 -1.51339 0)
(213.86 -2.13031 0)
(197.563 -0.499111 0)
(212.403 3.84068 0)
(202.045 6.36723 0)
(181.635 3.06264 0)
(185.605 2.18611 0)
(165.642 1.09376 0)
(179.399 -3.55528 0)
(194.165 -5.07515 0)
(200.596 -2.47684 0)
(203.339 -1.81154 0)
(213.495 -3.72486 0)
(210.341 -0.900912 0)
(187.677 4.01698 0)
(188.697 3.27203 0)
(198.229 1.18463 0)
(199.11 2.66258 0)
(193.164 2.87106 0)
(185.547 -1.02912 0)
(207.38 -5.36294 0)
(208.578 -3.25646 0)
(210.446 -1.139 0)
(207.461 -0.934481 0)
(193.49 0.56082 0)
(197.559 1.40769 0)
(211.373 1.92677 0)
(209.072 2.69774 0)
(206.342 0.603994 0)
(198.524 -3.36089 0)
(224.781 -5.18299 0)
(221.423 -2.82699 0)
(233.869 -0.997548 0)
(227.787 2.54964 0)
(210.62 3.12263 0)
(225.947 -1.61653 0)
(226.82 -6.01606 0)
(248.744 -6.90797 0)
(259.422 -6.54626 0)
(268.365 -7.36376 0)
(265.087 -3.10361 0)
(281.526 0.710906 0)
(270.199 3.92642 0)
(265.286 5.51186 0)
(244.366 4.92188 0)
(255.84 2.37999 0)
(241.417 -0.657412 0)
(247.85 -1.6288 0)
(252.349 -3.33764 0)
(251.224 -2.7495 0)
(243.267 3.52443 0)
(237.619 7.13531 0)
(199.155 2.03689 0)
(24.8941 -14.917 0)
(56.7391 -16.7547 0)
(87.4489 -15.537 0)
(115.28 -13.5553 0)
(140.264 -11.5924 0)
(159.908 -11.9496 0)
(176.39 -12.4019 0)
(171.603 -9.70374 0)
(204.929 -6.73186 0)
(208.786 -4.01369 0)
(198.645 0.617406 0)
(221.1 2.30001 0)
(219.531 2.2572 0)
(245.6 -1.90098 0)
(247.665 0.991667 0)
(242.704 4.4825 0)
(233.423 2.03894 0)
(219.865 -0.593406 0)
(213.821 -7.15474 0)
(244.235 -9.1881 0)
(223.439 -6.06897 0)
(254.567 -0.649259 0)
(230.731 1.29412 0)
(211.965 0.748522 0)
(243.208 -5.33208 0)
(240.539 -6.79488 0)
(240.192 -0.511755 0)
(219.9 5.14656 0)
(227.19 4.23465 0)
(239.332 2.25626 0)
(228.34 5.03022 0)
(210.95 0.953272 0)
(226.471 -3.76552 0)
(231.314 -2.24476 0)
(225.18 -0.143112 0)
(216.129 -2.63679 0)
(233.158 -5.10296 0)
(216.061 1.81743 0)
(219.745 3.92066 0)
(226.772 -1.96751 0)
(232.481 -2.94274 0)
(236.826 -1.6854 0)
(233.119 3.16312 0)
(210.733 7.06058 0)
(208.596 4.98803 0)
(217.541 -4.2543 0)
(223.072 -5.73411 0)
(235.696 -2.862 0)
(241.233 -2.22104 0)
(230.462 -0.859852 0)
(243.403 4.69472 0)
(234.06 9.5915 0)
(223.07 5.91284 0)
(206.351 3.70258 0)
(205.781 0.264228 0)
(218.849 -6.1902 0)
(226.447 -7.81219 0)
(228.42 -3.029 0)
(218.985 -2.37472 0)
(236.659 -4.92549 0)
(230.627 1.53221 0)
(212.122 6.38643 0)
(215.253 2.64003 0)
(220.273 -0.422119 0)
(228.424 1.95459 0)
(225.092 2.88816 0)
(238.212 -2.61647 0)
(236.527 -5.64233 0)
(223.141 -3.67567 0)
(232.623 -0.257121 0)
(223.605 0.174063 0)
(225.26 -0.358702 0)
(234.663 -0.317101 0)
(243.67 1.17993 0)
(242.751 3.40366 0)
(235.549 0.498619 0)
(249.42 -5.27342 0)
(246.598 -6.31707 0)
(249.109 -5.52881 0)
(273.647 -2.74028 0)
(268.692 4.45038 0)
(267.853 3.55607 0)
(259.422 -4.05332 0)
(284.561 -10.219 0)
(292.678 -8.61619 0)
(293.891 -7.12994 0)
(285.773 -9.27196 0)
(305.072 -4.17799 0)
(293.003 1.45484 0)
(297.091 6.00514 0)
(282.019 8.09245 0)
(280.415 5.34209 0)
(284.193 2.31223 0)
(280.292 -0.410336 0)
(278.275 -1.53291 0)
(275.268 -2.54581 0)
(261.415 -1.97072 0)
(261.014 6.50329 0)
(248.234 15.148 0)
(193.248 6.5424 0)
(27.2657 -25.1894 0)
(63.8885 -25.6629 0)
(98.2928 -23.3868 0)
(128.59 -20.408 0)
(153.789 -17.1938 0)
(171.586 -15.8714 0)
(186.47 -14.2727 0)
(180.183 -13.4191 0)
(212.906 -9.70506 0)
(205.318 -5.31698 0)
(231.222 -2.25651 0)
(234.858 -0.397154 0)
(266.157 -2.77022 0)
(272.415 -3.58952 0)
(271.438 2.10978 0)
(272.555 6.24115 0)
(251.274 2.99589 0)
(279.444 -0.726555 0)
(272.519 -7.52761 0)
(267.293 -9.2134 0)
(242.643 -7.88595 0)
(274.05 0.339938 0)
(257.44 5.33819 0)
(230.945 0.0677292 0)
(255.492 -6.70713 0)
(231.922 -6.13264 0)
(249.461 0.723855 0)
(226.966 5.92777 0)
(241.577 2.10833 0)
(248.93 2.33915 0)
(245.722 6.79012 0)
(239.951 1.30801 0)
(230.776 -4.25175 0)
(239.677 -1.51541 0)
(224.681 0.589445 0)
(244.13 -3.9045 0)
(244.597 -4.77993 0)
(225.26 2.48369 0)
(235.774 3.94232 0)
(235.759 -2.38251 0)
(235.389 -3.56395 0)
(232.668 -3.2737 0)
(245.106 4.74505 0)
(237.77 10.25 0)
(224.194 4.34496 0)
(239.577 -5.70052 0)
(233.028 -6.7304 0)
(241.446 -4.27967 0)
(240.211 -3.86739 0)
(247.747 -2.24203 0)
(253.128 5.25017 0)
(248.581 11.7722 0)
(244.109 8.15743 0)
(229.889 4.7783 0)
(244.597 -2.08364 0)
(249.698 -7.71453 0)
(251.457 -7.97256 0)
(250.943 -2.3986 0)
(252.37 -2.27448 0)
(250.408 -3.96883 0)
(229.132 3.00821 0)
(238.677 7.21191 0)
(229.562 3.68628 0)
(232.354 -1.87318 0)
(242.185 0.167875 0)
(246.931 1.8626 0)
(252.354 -2.52683 0)
(239.723 -4.78541 0)
(248.329 -2.87949 0)
(234.523 0.027712 0)
(245.438 0.326468 0)
(241.153 -2.9314 0)
(257.182 -2.49807 0)
(261.177 1.39117 0)
(261.372 3.98083 0)
(260.156 -0.396044 0)
(261.502 -7.05799 0)
(279.036 -7.05509 0)
(270.555 -8.1115 0)
(293.884 -4.32555 0)
(274.584 4.91283 0)
(294.489 4.53183 0)
(294.777 -6.5833 0)
(305.83 -13.8908 0)
(312.165 -8.80184 0)
(315.786 -6.60317 0)
(312.77 -10.0219 0)
(298.127 -3.80656 0)
(309.236 2.15733 0)
(286.112 6.38498 0)
(302.02 8.61531 0)
(287.619 6.29186 0)
(295.291 2.40919 0)
(290.722 0.166427 0)
(282.162 0.36341 0)
(270.772 0.415595 0)
(252.247 -0.378869 0)
(243.167 8.239 0)
(235.597 23.5749 0)
(197.666 11.6464 0)
(26.4337 -36.0831 0)
(63.8439 -34.9374 0)
(96.4794 -31.4109 0)
(125.727 -27.2471 0)
(150.338 -22.6945 0)
(170.962 -19.7682 0)
(185.362 -16.3611 0)
(194.256 -15.9612 0)
(197.788 -12.3575 0)
(222.597 -8.63633 0)
(222.721 -7.01929 0)
(263.901 -5.81709 0)
(273.556 -5.15774 0)
(271.539 -3.00439 0)
(253.881 1.3462 0)
(289.546 5.14847 0)
(280.867 1.83061 0)
(297.43 -1.70225 0)
(285.85 -4.77314 0)
(275.835 -5.09852 0)
(242.249 -6.78444 0)
(247.645 -1.8557 0)
(274.753 7.90395 0)
(257.417 1.25368 0)
(255.138 -5.3346 0)
(243.012 -4.01064 0)
(225.079 0.993576 0)
(231.094 4.86281 0)
(242.961 0.581319 0)
(247.855 1.2807 0)
(248.482 7.19493 0)
(248.052 3.18768 0)
(237.57 -2.75846 0)
(224.111 -1.66438 0)
(240.468 -1.21698 0)
(244.953 -4.64016 0)
(245.933 -3.78612 0)
(231.916 2.33374 0)
(250.388 4.03172 0)
(239.903 -0.0951827 0)
(223.744 -3.96307 0)
(240.208 -5.47063 0)
(234.99 4.06838 0)
(248.989 12.4342 0)
(236.728 5.0776 0)
(240.115 -6.17769 0)
(239.306 -6.43173 0)
(238.41 -5.01414 0)
(250.933 -5.71074 0)
(238.341 -3.40331 0)
(248.997 6.12907 0)
(251.18 12.3169 0)
(255.797 8.98373 0)
(261.01 2.9708 0)
(265.482 -3.67361 0)
(264.504 -6.78602 0)
(258.279 -6.45421 0)
(240.293 -2.8313 0)
(261.91 -1.69727 0)
(251.669 -1.51048 0)
(229.675 2.68755 0)
(246.852 6.65691 0)
(239.634 5.32112 0)
(238.736 -1.76627 0)
(233.643 -2.20824 0)
(250.934 0.317575 0)
(256.596 -1.7006 0)
(255.348 -3.75699 0)
(241.582 -2.74944 0)
(251.54 0.671448 0)
(241.126 -0.529028 0)
(253.224 -4.84503 0)
(247.356 -3.87319 0)
(261.67 0.54287 0)
(264.756 3.70436 0)
(268.271 -0.802687 0)
(259.779 -9.31483 0)
(284.628 -10.0088 0)
(293.239 -9.22252 0)
(297.843 -3.84957 0)
(275.618 4.10566 0)
(302.093 3.10391 0)
(295.431 -6.93729 0)
(295.354 -14.6558 0)
(285.385 -10.6997 0)
(311.844 -6.74517 0)
(305.91 -8.6338 0)
(290.495 -2.44195 0)
(300.336 4.75119 0)
(276.118 7.03298 0)
(294.108 7.95132 0)
(281.74 7.72323 0)
(284.335 2.67902 0)
(275.57 1.10509 0)
(268.5 3.84329 0)
(248.43 5.34463 0)
(223.269 3.02546 0)
(204.795 10.2872 0)
(206.661 27.903 0)
(200.621 14.2822 0)
(23.2473 -46.443 0)
(57.979 -43.2987 0)
(81.4236 -38.4403 0)
(105.578 -33.5056 0)
(125.469 -28.4524 0)
(154.498 -23.9615 0)
(159.531 -19.2887 0)
(175.339 -18.3325 0)
(179.439 -15.747 0)
(215.821 -13.0381 0)
(210.558 -13.3001 0)
(256.017 -11.1831 0)
(258.817 -5.371 0)
(257.5 -1.4218 0)
(241.108 -1.24246 0)
(279.304 0.859478 0)
(281.929 0.563705 0)
(287.936 -1.36537 0)
(277.258 -1.94935 0)
(272.791 -1.08136 0)
(251.065 -3.09768 0)
(225.81 -3.34976 0)
(250.893 5.86039 0)
(250.515 4.01295 0)
(242.04 -2.55491 0)
(234.899 -1.15826 0)
(209.956 1.64809 0)
(230.436 1.38819 0)
(236.477 -0.180218 0)
(233.547 3.18876 0)
(221.951 6.65936 0)
(236.335 4.19047 0)
(225.642 -0.598795 0)
(228.874 -2.36295 0)
(220.027 -3.18412 0)
(240.59 -5.33356 0)
(236.018 -3.39509 0)
(223.579 1.41109 0)
(244.671 3.9811 0)
(241.189 2.17944 0)
(231.284 -3.83674 0)
(239.25 -6.21322 0)
(221.002 3.00101 0)
(239.354 12.2551 0)
(236.127 5.84801 0)
(242.518 -6.63878 0)
(235.888 -5.98198 0)
(247.617 -5.4769 0)
(242.96 -5.67341 0)
(230.143 -3.19693 0)
(239.61 5.40988 0)
(239.113 11.4047 0)
(253.911 7.13242 0)
(262.949 1.73617 0)
(265.585 -3.98734 0)
(262.855 -4.52636 0)
(254.428 -4.00454 0)
(232.397 -3.94778 0)
(261.007 -1.83089 0)
(249.294 1.70156 0)
(226.93 2.34563 0)
(241.84 6.12348 0)
(236.688 7.38854 0)
(233.935 -0.615459 0)
(224.475 -4.22406 0)
(237.236 -2.94225 0)
(249.733 -1.8831 0)
(253.451 -3.01727 0)
(250.776 -1.7568 0)
(235.303 1.11162 0)
(250.12 -1.42925 0)
(231.268 -5.29586 0)
(241.8 -4.12713 0)
(237.81 -0.890118 0)
(252.283 2.14353 0)
(260.222 -0.823424 0)
(258.034 -10.048 0)
(248.871 -12.8763 0)
(271.26 -11.7342 0)
(282.798 -3.65376 0)
(267.389 3.44235 0)
(287.632 2.47051 0)
(277.581 -5.62828 0)
(273.695 -14.4653 0)
(257.164 -12.3066 0)
(287.258 -8.07722 0)
(267.343 -6.875 0)
(266.946 -2.59829 0)
(269.978 6.16164 0)
(269.761 6.95448 0)
(268.552 7.44196 0)
(264.675 9.43232 0)
(260.41 4.21337 0)
(250.402 3.77883 0)
(222.655 8.60344 0)
(213.138 10.7992 0)
(187.082 8.94066 0)
(149.203 13.1597 0)
(157.293 27.1568 0)
(174.518 13.0596 0)
(18.6444 -55.445 0)
(48.8269 -50.3502 0)
(71.9075 -44.3625 0)
(92.3812 -38.8906 0)
(111.582 -33.6077 0)
(126.51 -28.3354 0)
(147.571 -23.058 0)
(162.562 -20.7934 0)
(159.774 -19.8635 0)
(196.515 -17.3791 0)
(190.211 -18.7408 0)
(226.89 -15.7992 0)
(229.481 -5.67901 0)
(234.424 -0.444286 0)
(230.959 -2.26541 0)
(227.101 -3.62629 0)
(254.584 -1.87628 0)
(258.049 -0.434721 0)
(250.017 -0.353059 0)
(243.227 1.88278 0)
(225.718 1.66814 0)
(211.968 -0.48461 0)
(191.104 2.56513 0)
(223.891 3.3194 0)
(219.359 -0.765176 0)
(215 1.40198 0)
(192.045 1.50849 0)
(213.157 -0.47408 0)
(209.225 1.44615 0)
(207.123 4.88596 0)
(192.785 6.19921 0)
(205.408 3.19223 0)
(207.3 -0.233227 0)
(213.356 -2.6821 0)
(218.978 -4.66433 0)
(222.48 -5.42117 0)
(214.244 -2.19756 0)
(199.676 0.0473861 0)
(221.927 2.79448 0)
(228.067 2.87642 0)
(224.338 -3.21272 0)
(224.03 -5.44077 0)
(201.474 2.47996 0)
(222.459 10.1756 0)
(229.159 4.97866 0)
(230.728 -6.05938 0)
(215.409 -6.60073 0)
(237.022 -5.89038 0)
(217.976 -4.84031 0)
(223.843 -2.96606 0)
(212.674 6.24486 0)
(217.732 7.99356 0)
(240.764 3.22452 0)
(247.185 0.336694 0)
(246.186 -3.78213 0)
(242.048 -2.70883 0)
(239.621 -1.71557 0)
(218.637 -5.18718 0)
(243.214 -2.64973 0)
(236.877 5.06197 0)
(223.994 3.19825 0)
(208.105 5.25911 0)
(225.712 8.48278 0)
(222.389 1.30944 0)
(206.204 -5.59055 0)
(217.693 -5.95935 0)
(233.622 -4.13985 0)
(238.829 -3.36365 0)
(236.935 -0.187278 0)
(224.293 1.58785 0)
(236.237 -0.242529 0)
(223.499 -4.05946 0)
(208.888 -4.33318 0)
(224.213 -1.86414 0)
(222.051 -0.69335 0)
(243.426 -1.52041 0)
(237.249 -8.39204 0)
(224.698 -14.4298 0)
(246.734 -14.1942 0)
(235.014 -5.11862 0)
(248.651 2.25769 0)
(255.804 3.24367 0)
(248.24 -3.69656 0)
(242.418 -13.092 0)
(222.848 -13.3223 0)
(253.282 -8.667 0)
(228.409 -5.57803 0)
(228.037 -2.44509 0)
(228.593 6.577 0)
(236.285 7.15408 0)
(227.856 8.65873 0)
(220.234 11.4686 0)
(214.468 6.29214 0)
(204.052 7.49747 0)
(176.52 13.7149 0)
(168.805 16.4648 0)
(141.857 16.6139 0)
(96.9674 16.7134 0)
(102.255 24.5679 0)
(127.722 10.2419 0)
(13.336 -62.7574 0)
(38.8042 -56.4188 0)
(57.6406 -49.4118 0)
(72.8565 -43.2155 0)
(89.2729 -37.5205 0)
(104.512 -32.4426 0)
(117.869 -27.3882 0)
(137.275 -23.1198 0)
(140.98 -23.2543 0)
(167.594 -21.5018 0)
(174.005 -22.2349 0)
(184.956 -17.5387 0)
(178.45 -7.33628 0)
(197.182 -1.54213 0)
(197.649 -1.47041 0)
(196.959 -5.307 0)
(192.036 -4.72485 0)
(207.586 -0.206273 0)
(198.291 2.01501 0)
(186.113 4.78064 0)
(165.408 5.72124 0)
(161.879 3.2775 0)
(141.812 0.66799 0)
(173.769 -0.378625 0)
(177.484 -0.307155 0)
(173.971 3.51626 0)
(169.204 1.29412 0)
(166.537 -0.379728 0)
(164.134 3.49654 0)
(152.792 4.45869 0)
(169.027 4.56372 0)
(177.765 2.31104 0)
(169.029 -1.60012 0)
(182.841 -4.38292 0)
(188.59 -5.00324 0)
(188.515 -4.36348 0)
(183.168 -0.681339 0)
(165.543 -0.0552324 0)
(175.593 0.204229 0)
(196.178 1.85083 0)
(192.969 -2.7121 0)
(197.936 -3.97148 0)
(173.905 1.63888 0)
(202.388 6.79619 0)
(212.956 4.02406 0)
(212.171 -5.19154 0)
(205.648 -7.2557 0)
(216.74 -5.41848 0)
(206.209 -3.56229 0)
(193.566 -0.203099 0)
(176.001 6.37499 0)
(194.089 4.36927 0)
(210.014 -0.165254 0)
(216.545 0.225227 0)
(205.639 -2.2915 0)
(190.594 -1.66428 0)
(202.557 -0.828902 0)
(199.455 -6.04866 0)
(204.577 -3.33414 0)
(208.802 6.76957 0)
(196.443 5.82811 0)
(184.785 5.32881 0)
(204.156 7.01347 0)
(207.638 2.86806 0)
(201.451 -5.07198 0)
(187.122 -8.58625 0)
(210.15 -6.38965 0)
(212.537 -3.64886 0)
(206.117 1.94537 0)
(185.128 3.19719 0)
(193.386 -0.786002 0)
(187.236 -2.39187 0)
(192.36 -3.89745 0)
(196.155 -2.20875 0)
(186.474 -3.59261 0)
(214.308 -3.85339 0)
(211.525 -7.22142 0)
(208.251 -14.9722 0)
(211.298 -14.762 0)
(208.683 -5.41949 0)
(201.545 0.00839493 0)
(221.509 4.13676 0)
(215.405 -1.81996 0)
(205.525 -10.8583 0)
(179.858 -12.7805 0)
(195.497 -8.23928 0)
(181.938 -4.18301 0)
(171.578 -2.20739 0)
(185.18 5.72469 0)
(190.896 7.51554 0)
(172.745 9.84198 0)
(179.403 12.8883 0)
(172.343 9.43433 0)
(143.806 12.1555 0)
(127.824 17.8687 0)
(116.515 21.6404 0)
(89.4944 24.6243 0)
(42.5872 22.0395 0)
(39.5393 21.8376 0)
(77.5966 6.57258 0)
(7.7923 -68.098 0)
(27.9648 -60.9206 0)
(40.4984 -53.2802 0)
(47.6425 -47.1554 0)
(62.8601 -41.0458 0)
(74.9491 -36.073 0)
(88.5819 -31.4793 0)
(98.0568 -26.692 0)
(114.7 -26.6663 0)
(128.484 -24.8496 0)
(129.849 -23.63 0)
(128.149 -18.0837 0)
(140.779 -8.30506 0)
(136.766 -3.92996 0)
(151.286 -1.41279 0)
(148.664 -4.47749 0)
(141.095 -5.43096 0)
(142.846 0.835868 0)
(128.179 5.281 0)
(109.395 7.25125 0)
(110.148 8.36901 0)
(90.2942 5.64515 0)
(100.835 -1.08367 0)
(107.959 -2.72381 0)
(111.539 0.524428 0)
(90.8143 3.50202 0)
(106.052 0.881697 0)
(101.999 -0.30007 0)
(115.681 4.30059 0)
(109.729 3.30578 0)
(122.408 0.947557 0)
(139.255 1.79369 0)
(137.27 -1.61042 0)
(130.654 -6.62967 0)
(141.793 -5.30989 0)
(140.537 -3.10886 0)
(132.822 0.938841 0)
(117.829 0.140375 0)
(137.112 -2.89602 0)
(152.328 -0.40827 0)
(155.172 -3.05232 0)
(158.684 -2.34469 0)
(137.353 0.555931 0)
(160.968 2.99581 0)
(176.983 3.10245 0)
(172.932 -3.95786 0)
(157.655 -7.36756 0)
(173.404 -5.50119 0)
(161.681 -1.2593 0)
(148.313 2.7766 0)
(138.141 6.23381 0)
(162.033 0.424171 0)
(165.395 -2.31987 0)
(175.554 1.43307 0)
(153.55 0.154315 0)
(155.264 -1.1677 0)
(151.595 -1.66288 0)
(153.115 -5.56439 0)
(140.908 -3.33209 0)
(158.889 6.00832 0)
(149.334 7.30792 0)
(144.43 3.96514 0)
(168.944 4.44285 0)
(176.694 2.98578 0)
(172.16 -3.07312 0)
(150.677 -8.89285 0)
(170.904 -8.46241 0)
(173.674 -3.13175 0)
(165.92 4.65682 0)
(151.922 5.95659 0)
(135.178 -0.187561 0)
(136.214 -3.86644 0)
(150.115 -4.46692 0)
(154.936 -1.60985 0)
(143.834 -5.50075 0)
(161.568 -7.15186 0)
(171.339 -6.6285 0)
(162.797 -13.9353 0)
(155.297 -14.1273 0)
(153.565 -5.91708 0)
(159.866 -1.82451 0)
(175.444 3.86441 0)
(173.33 0.0859702 0)
(162.222 -7.58912 0)
(143.333 -10.3072 0)
(134.446 -6.5127 0)
(123.552 -2.56785 0)
(109.247 -2.21277 0)
(127.619 3.71346 0)
(134.271 7.9882 0)
(123.307 10.9274 0)
(127.207 14.6867 0)
(116.472 14.3353 0)
(88.3174 16.7155 0)
(70.5208 21.857 0)
(60.683 27.4446 0)
(32.4429 32.968 0)
(-10.2878 27.2391 0)
(-15.4768 20.5086 0)
(6.39442 3.25714 0)
(2.40537 -71.5797 0)
(16.4553 -63.9243 0)
(22.1256 -55.1549 0)
(23.608 -48.9054 0)
(33.0917 -43.5424 0)
(42.7604 -38.6086 0)
(52.0607 -34.1482 0)
(61.6452 -29.6843 0)
(73.7781 -29.1743 0)
(79.2564 -26.2347 0)
(76.791 -23.8838 0)
(73.131 -19.2708 0)
(88.7233 -9.9574 0)
(88.3405 -4.67044 0)
(86.477 -2.10368 0)
(89.8518 -3.2084 0)
(77.691 -3.56871 0)
(62.6656 3.68066 0)
(57.5954 8.49317 0)
(38.783 8.81961 0)
(40.734 9.96401 0)
(37.0128 6.87941 0)
(34.0423 -1.80006 0)
(33.2281 -2.60973 0)
(33.8914 2.28167 0)
(14.6168 3.53099 0)
(23.7831 -0.395838 0)
(22.1453 -2.31368 0)
(50.4474 2.29045 0)
(62.1393 1.36297 0)
(65.2123 -2.23844 0)
(81.4907 0.40258 0)
(82.9976 -1.14427 0)
(81.9998 -7.16389 0)
(80.749 -5.35414 0)
(77.2636 -1.25446 0)
(65.1086 2.03869 0)
(63.9744 -0.977959 0)
(81.3546 -6.43861 0)
(100.472 -3.02127 0)
(107.706 -3.28928 0)
(101.224 -1.00586 0)
(80.7056 0.0870804 0)
(102.087 -0.58248 0)
(120.23 1.49484 0)
(121.368 -2.96517 0)
(115.019 -6.42887 0)
(105.601 -4.46266 0)
(98.5266 0.6196 0)
(88.9189 3.86991 0)
(99.0374 5.06993 0)
(111.346 -2.1012 0)
(112.927 -3.93575 0)
(122.475 3.03512 0)
(106.287 2.8784 0)
(96.3584 -0.494533 0)
(102.19 -1.6569 0)
(91.2621 -4.31469 0)
(87.5723 -3.12989 0)
(93.3449 5.43094 0)
(85.4634 7.8974 0)
(83.6108 1.32902 0)
(115.424 0.867253 0)
(124.867 2.17613 0)
(125.49 -1.39817 0)
(113.818 -8.09249 0)
(113.396 -9.60572 0)
(118.625 -2.86331 0)
(108.266 7.31955 0)
(97.1867 10.6031 0)
(84.6665 1.38404 0)
(73.1896 -6.15417 0)
(91.5525 -6.3919 0)
(94.7167 -2.29962 0)
(104.724 -6.7052 0)
(104.3 -9.52169 0)
(117.252 -6.77634 0)
(103.006 -10.9331 0)
(81.6018 -12.3338 0)
(78.4873 -7.69153 0)
(92.9172 -4.81078 0)
(109.166 3.04097 0)
(116.248 1.19356 0)
(103.706 -5.09119 0)
(85.9887 -5.76164 0)
(71.57 -2.43293 0)
(52.4289 -0.0065777 0)
(39.6916 -2.53612 0)
(56.1965 1.47925 0)
(62.9035 7.91085 0)
(54.1079 11.2827 0)
(60.45 15.9431 0)
(54.1765 18.5542 0)
(26.7326 21.533 0)
(11.8958 25.5889 0)
(2.51933 32.6685 0)
(-26.1285 39.6289 0)
(-54.1903 32.3176 0)
(-72.6359 21.6357 0)
(-60.9731 1.84103 0)
(-2.87312 -72.8654 0)
(4.61515 -64.8671 0)
(3.84898 -55.86 0)
(-0.159049 -50.0619 0)
(2.31252 -45.4152 0)
(7.68153 -40.8071 0)
(11.068 -36.5932 0)
(18.8346 -32.2398 0)
(24.5988 -30.3971 0)
(23.5756 -26.1215 0)
(18.3853 -23.1022 0)
(17.0075 -19.8275 0)
(24.1588 -11.4597 0)
(27.9854 -4.94723 0)
(24.7976 -1.44882 0)
(19.1104 -1.35696 0)
(1.23071 -0.634188 0)
(-10.1342 7.04697 0)
(-18.2489 11.7035 0)
(-35.5796 10.2408 0)
(-40.5475 10.1053 0)
(-34.3048 7.76993 0)
(-38.7763 -0.716024 0)
(-45.3018 -1.63731 0)
(-46.161 4.58318 0)
(-63.3151 4.80012 0)
(-64.9251 -0.658115 0)
(-69.0812 -5.95393 0)
(-33.2789 -3.10856 0)
(-13.3485 -1.2294 0)
(-15.0811 -4.6028 0)
(3.11403 -2.53817 0)
(17.4148 -1.47342 0)
(9.20643 -6.56001 0)
(2.44285 -3.60687 0)
(-2.28895 1.05417 0)
(-20.2617 2.36287 0)
(-11.8331 -3.2864 0)
(10.3204 -10.6696 0)
(32.0373 -6.57393 0)
(39.4971 -2.83848 0)
(24.1691 2.02852 0)
(3.09393 -0.221929 0)
(26.198 -4.78682 0)
(47.5727 -1.35774 0)
(54.3208 -3.18665 0)
(50.3058 -4.1547 0)
(33.0964 -1.2855 0)
(22.9113 2.07028 0)
(14.4751 2.80795 0)
(33.5795 3.45028 0)
(41.7925 -3.44455 0)
(37.487 -6.11015 0)
(53.3225 3.58567 0)
(43.84 5.37859 0)
(35.8525 0.588294 0)
(34.1623 -0.337867 0)
(15.9173 -1.94718 0)
(10.3384 -2.4466 0)
(9.48684 5.26144 0)
(7.61352 7.5622 0)
(9.02734 -2.31398 0)
(45.934 -4.66938 0)
(62.4134 0.449489 0)
(58.8548 -0.301929 0)
(47.7172 -6.12721 0)
(43.039 -9.13063 0)
(40.912 -2.80548 0)
(29.9259 9.13808 0)
(28.5101 13.9873 0)
(19.3149 4.45978 0)
(0.17822 -7.23756 0)
(18.3351 -8.7421 0)
(29.1091 -3.98829 0)
(37.4644 -8.35356 0)
(39.455 -11.0385 0)
(43.7205 -5.34141 0)
(28.3961 -5.67183 0)
(-0.324416 -8.6501 0)
(-5.5387 -9.74758 0)
(8.23149 -9.00305 0)
(33.4907 0.630552 0)
(43.397 1.95319 0)
(24.9162 -2.65042 0)
(8.25375 -1.19108 0)
(-5.06662 2.7767 0)
(-25.8795 3.25531 0)
(-37.2017 -3.0035 0)
(-22.6038 -0.813751 0)
(-16.7318 7.18989 0)
(-21.6801 10.9975 0)
(-13.5038 16.4586 0)
(-13.3176 22.0342 0)
(-35.6715 25.6473 0)
(-44.5785 29.4969 0)
(-61.8245 37.9142 0)
(-77.569 44.9599 0)
(-102.058 37.537 0)
(-128.275 24.7714 0)
(-112.071 1.6296 0)
(-8.31221 -72.1739 0)
(-8.31256 -63.9921 0)
(-17.0753 -54.9316 0)
(-20.5453 -49.2075 0)
(-23.9704 -45.1038 0)
(-24.5689 -40.7872 0)
(-30.8015 -37.0648 0)
(-30.0628 -33.2382 0)
(-29.9733 -30.2919 0)
(-34.5506 -25.443 0)
(-41.2627 -22.7584 0)
(-44.9415 -20.3801 0)
(-41.2937 -12.4837 0)
(-38.9604 -4.62387 0)
(-45.6695 0.965004 0)
(-56.693 2.12082 0)
(-81.311 2.51266 0)
(-89.1825 9.61833 0)
(-89.718 14.3814 0)
(-109.287 12.5257 0)
(-120.457 10.2569 0)
(-110.966 7.81644 0)
(-114.301 0.487009 0)
(-123.008 -0.078086 0)
(-127.59 6.76821 0)
(-140.441 6.38597 0)
(-146.685 0.140315 0)
(-150.619 -9.09861 0)
(-121.317 -9.52086 0)
(-98.1644 -4.37763 0)
(-100.363 -6.4895 0)
(-85.1291 -6.97364 0)
(-62.7727 -2.53632 0)
(-74.8303 -4.35682 0)
(-83.8593 -1.25224 0)
(-85.9824 3.57799 0)
(-102.659 1.55879 0)
(-89.702 -6.27746 0)
(-73.0836 -14.9289 0)
(-53.2531 -10.6443 0)
(-44.3915 -1.7899 0)
(-56.811 5.10206 0)
(-69.6947 -1.02864 0)
(-52.7173 -8.8328 0)
(-31.3848 -4.60424 0)
(-24.7779 -3.8493 0)
(-28.8809 -1.63778 0)
(-44.6653 2.57048 0)
(-51.8005 3.48198 0)
(-61.5143 0.874231 0)
(-40.0724 1.37636 0)
(-33.5594 -2.96348 0)
(-55.2558 -8.08335 0)
(-26.3446 1.24211 0)
(-23.814 7.07913 0)
(-34.8626 2.90121 0)
(-43.2315 2.37298 0)
(-61.2436 1.26934 0)
(-69.8379 -0.789349 0)
(-72.0566 4.88909 0)
(-67.1688 5.95059 0)
(-64.3245 -5.81106 0)
(-35.1596 -10.9416 0)
(-12.9453 -1.80464 0)
(-15.3381 1.38859 0)
(-28.794 -3.20111 0)
(-38.8798 -6.64657 0)
(-51.5565 -1.39463 0)
(-54.9158 8.94816 0)
(-43.9789 15.0022 0)
(-45.9948 7.29539 0)
(-65.6053 -6.86213 0)
(-57.6214 -11.3581 0)
(-44.6025 -6.0514 0)
(-41.5098 -8.98847 0)
(-45.2857 -11.7696 0)
(-41.1989 -4.0846 0)
(-53.0677 -0.634137 0)
(-76.9353 -5.04534 0)
(-80.8993 -11.065 0)
(-75.6223 -13.3779 0)
(-48.5428 -2.54271 0)
(-41.2319 3.36154 0)
(-63.9895 0.325339 0)
(-71.8531 2.26408 0)
(-81.9719 7.33497 0)
(-98.6669 5.91452 0)
(-108.517 -2.9466 0)
(-97.7543 -1.93385 0)
(-98.6149 6.16513 0)
(-94.7362 9.85829 0)
(-88.9683 15.8795 0)
(-82.4549 23.5645 0)
(-96.6051 28.6951 0)
(-108.918 33.1058 0)
(-120.682 42.1242 0)
(-137.167 48.0428 0)
(-136.708 40.6428 0)
(-162.513 27.6656 0)
(-138.538 1.52197 0)
(-14.0144 -69.1706 0)
(-21.8234 -61.1261 0)
(-38.2463 -52.847 0)
(-50.8485 -47.4957 0)
(-61.26 -43.7118 0)
(-66.8763 -39.6428 0)
(-74.3884 -35.9677 0)
(-80.0245 -32.3167 0)
(-86.096 -28.6897 0)
(-94.86 -23.5623 0)
(-103.004 -20.9939 0)
(-109.378 -19.5148 0)
(-109.279 -13.0399 0)
(-108.995 -4.40858 0)
(-118.862 3.70683 0)
(-130.573 6.97804 0)
(-159.946 5.99304 0)
(-164.679 10.8654 0)
(-156.405 16.7936 0)
(-180.999 15.4623 0)
(-188.751 11.1568 0)
(-188.33 7.43395 0)
(-184.452 1.78171 0)
(-197.21 2.49985 0)
(-201.746 8.98799 0)
(-216.922 8.02378 0)
(-219.034 0.726329 0)
(-223.115 -11.5197 0)
(-199.22 -14.7569 0)
(-179.675 -7.98094 0)
(-176.912 -7.83855 0)
(-169.049 -11.2 0)
(-144.936 -4.45709 0)
(-158.814 -1.8231 0)
(-169.962 1.03151 0)
(-166.198 5.23694 0)
(-179.317 0.687405 0)
(-165.525 -9.29217 0)
(-154.555 -17.8979 0)
(-142.495 -13.7251 0)
(-132.189 -2.31947 0)
(-136.073 6.11342 0)
(-142.886 -1.40842 0)
(-133.804 -12.4748 0)
(-106.32 -8.25191 0)
(-104.877 -4.21104 0)
(-111.097 0.769077 0)
(-120.576 5.41933 0)
(-128.413 4.43209 0)
(-133.982 -1.17859 0)
(-116.76 -0.770451 0)
(-105.919 -0.999437 0)
(-135.559 -8.91029 0)
(-108.441 -3.26997 0)
(-90.8135 7.11739 0)
(-105.257 6.48603 0)
(-120.135 5.80637 0)
(-133.873 4.65172 0)
(-144.028 1.40669 0)
(-150.966 3.90024 0)
(-137.01 3.53081 0)
(-135.197 -8.59857 0)
(-111.226 -16.6469 0)
(-91.3066 -4.87058 0)
(-93.0918 2.91885 0)
(-106.268 0.418092 0)
(-118.013 -2.53363 0)
(-134.998 -0.115009 0)
(-133.533 6.71905 0)
(-114.14 13.1402 0)
(-99.7153 8.39442 0)
(-125.939 -4.14625 0)
(-133.336 -12.6908 0)
(-112.725 -7.90564 0)
(-120.253 -7.97588 0)
(-133.355 -10.8956 0)
(-131.032 -2.74148 0)
(-138.632 2.85798 0)
(-150.136 -2.02817 0)
(-162.611 -11.8306 0)
(-152.397 -17.5527 0)
(-126.921 -5.33924 0)
(-127.505 5.55309 0)
(-150.306 2.32215 0)
(-150.703 4.28888 0)
(-159.54 10.6855 0)
(-170.5 8.29077 0)
(-178.637 -2.0871 0)
(-181.804 -2.44757 0)
(-169.8 5.37736 0)
(-177.005 8.65575 0)
(-161.968 13.1507 0)
(-138.823 23.012 0)
(-154.54 31.9775 0)
(-165.288 36.8967 0)
(-174.445 44.8114 0)
(-178.038 48.5919 0)
(-178.319 41.124 0)
(-187.278 27.4116 0)
(-150.578 0.911309 0)
(-20.0185 -63.8431 0)
(-35.3924 -56.1488 0)
(-59.2911 -48.7528 0)
(-78.8665 -43.9314 0)
(-94.4398 -40.8424 0)
(-105.29 -37.544 0)
(-116.219 -33.9102 0)