/*--------------------------------*- C++ -*----------------------------------*\
| =========                 |                                                 |
| \\      /  F ield         | foam-extend: Open Source CFD                    |
|  \\    /   O peration     | Version:     5.0                                |
|   \\  /    A nd           | Web:         http://www.foam-extend.org         |
|    \\/     M anipulation  |                                                 |
\*---------------------------------------------------------------------------*/
FoamFile
{
    version     2.0;
    format      ascii;
    class       volVectorField;
    location    "0.09";
    object      currentDensity;
}
// * * * * * * * * * * * * * * * * * * * * * * * * * * * * * * * * * * * * * //

dimensions      [0 -2 0 0 0 1 0];

internalField   nonuniform List<vector> 
4000
(
(0 0 482.801)
(0 0 909.741)
(0 0 588.33)
(0 0 540.185)
(0 0 104.761)
(0 0 -770.763)
(0 0 -718.796)
(0 0 467.398)
(0 0 2244.89)
(0 0 5035.58)
(0 0 8264.05)
(0 0 12058.6)
(0 0 13541.1)
(0 0 11357.9)
(0 0 6104.3)
(0 0 2152.87)
(0 0 1339.91)
(0 0 3966.07)
(0 0 4842.71)
(0 0 6350.66)
(0 0 7785.49)
(0 0 11632.1)
(0 0 14689.9)
(0 0 18209.5)
(0 0 17067.5)
(0 0 18200.9)
(0 0 27152.3)
(0 0 32865.1)
(0 0 27779.9)
(0 0 22125.5)
(0 0 23154.6)
(0 0 25494.7)
(0 0 25456.8)
(0 0 24220.6)
(0 0 24231.2)
(0 0 24768)
(0 0 25410.4)
(0 0 22359.8)
(0 0 19514.5)
(0 0 17081.2)
(0 0 15370.2)
(0 0 13481.5)
(0 0 10534.1)
(0 0 9941.98)
(0 0 9681.68)
(0 0 8285.38)
(0 0 7987.3)
(0 0 6113.55)
(0 0 5210.36)
(0 0 4193.24)
(0 0 4177.21)
(0 0 3141.28)
(0 0 3020.65)
(0 0 2339.77)
(0 0 2053.71)
(0 0 2235.07)
(0 0 2566.18)
(0 0 2088.44)
(0 0 2120.34)
(0 0 1712.96)
(0 0 1643.38)
(0 0 1568.59)
(0 0 1305.06)
(0 0 1272.69)
(0 0 1098.76)
(0 0 914.515)
(0 0 850.043)
(0 0 768.052)
(0 0 654.76)
(0 0 638.485)
(0 0 545.371)
(0 0 386.579)
(0 0 269.207)
(0 0 254.276)
(0 0 287.418)
(0 0 286.99)
(0 0 249.881)
(0 0 197.481)
(0 0 230.505)
(0 0 50.4455)
(0 0 -8.90101)
(0 0 -239.533)
(0 0 -365.027)
(0 0 -544.717)
(0 0 -516.706)
(0 0 -884.667)
(0 0 -798.707)
(0 0 -724.175)
(0 0 -878.294)
(0 0 -550.015)
(0 0 -263.378)
(0 0 -348.109)
(0 0 -63.8677)
(0 0 -84.8243)
(0 0 -55.8809)
(0 0 -21.0587)
(0 0 32.9499)
(0 0 132.399)
(0 0 295.552)
(0 0 454.244)
(0 0 280.192)
(0 0 -170.718)
(0 0 -1706.84)
(0 0 -2658.26)
(0 0 -3509.98)
(0 0 -3841.85)
(0 0 -4672.39)
(0 0 -3813.3)
(0 0 -2636.81)
(0 0 -1142.31)
(0 0 839.633)
(0 0 863.333)
(0 0 -28.0366)
(0 0 -6056.31)
(0 0 -10438.2)
(0 0 -10953.2)
(0 0 -8272.8)
(0 0 -7264.08)
(0 0 -4157.45)
(0 0 -133.683)
(0 0 794.559)
(0 0 1055.74)
(0 0 3199.34)
(0 0 6263.41)
(0 0 9678.67)
(0 0 15487.9)
(0 0 26144.5)
(0 0 24914.8)
(0 0 18779.6)
(0 0 8345.96)
(0 0 5937.52)
(0 0 13081.1)
(0 0 19614.7)
(0 0 21060.1)
(0 0 22769.1)
(0 0 25688.9)
(0 0 25917.6)
(0 0 23093.3)
(0 0 19842.9)
(0 0 17449.3)
(0 0 16859.5)
(0 0 14427.3)
(0 0 12694.4)
(0 0 10410.8)
(0 0 8011.81)
(0 0 8182.95)
(0 0 7234.67)
(0 0 6884.84)
(0 0 4811.61)
(0 0 4492.29)
(0 0 4104.68)
(0 0 4303.85)
(0 0 3554.22)
(0 0 3874.14)
(0 0 3563.33)
(0 0 4020.1)
(0 0 3296.29)
(0 0 3717.05)
(0 0 3205.08)
(0 0 3624.22)
(0 0 3290.85)
(0 0 2573.71)
(0 0 2948.33)
(0 0 2226.16)
(0 0 2395.58)
(0 0 1673.09)
(0 0 1549.12)
(0 0 1587.29)
(0 0 1191.94)
(0 0 1192.21)
(0 0 1035.56)
(0 0 792.362)
(0 0 564.111)
(0 0 578.091)
(0 0 525.247)
(0 0 704.063)
(0 0 563.485)
(0 0 415.027)
(0 0 679.196)
(0 0 247.674)
(0 0 171.524)
(0 0 -570.947)
(0 0 -314.075)
(0 0 -633.712)
(0 0 -1203.54)
(0 0 -1156.49)
(0 0 -1635.25)
(0 0 -1343.27)
(0 0 -1546.9)
(0 0 -1026.39)
(0 0 -505.883)
(0 0 -609.701)
(0 0 4.12157)
(0 0 -154.058)
(0 0 -116.25)
(0 0 -37.9764)
(0 0 95.9835)
(0 0 325.888)
(0 0 543.647)
(0 0 873.425)
(0 0 -321.559)
(0 0 -1353.55)
(0 0 -2887.29)
(0 0 -4485.66)
(0 0 -5245.39)
(0 0 -6509.62)
(0 0 -6652.42)
(0 0 -8008.46)
(0 0 -7679.89)
(0 0 -6398.58)
(0 0 -6686.85)
(0 0 -6313.39)
(0 0 -9677.37)
(0 0 -12424.8)
(0 0 -14431.1)
(0 0 -12425.4)
(0 0 -11142.7)
(0 0 -9945.07)
(0 0 -9431.65)
(0 0 -6109.54)
(0 0 -2596.73)
(0 0 -180.116)
(0 0 3146.42)
(0 0 4991.17)
(0 0 10328)
(0 0 15311.7)
(0 0 10246.5)
(0 0 3727.31)
(0 0 -3130.24)
(0 0 -563.657)
(0 0 6853.15)
(0 0 3976.26)
(0 0 7982.2)
(0 0 13993.4)
(0 0 13896.3)
(0 0 14928.1)
(0 0 17389.8)
(0 0 15119.1)
(0 0 13691.4)
(0 0 11066.6)
(0 0 11542.6)
(0 0 14416.1)
(0 0 11830.9)
(0 0 9960.74)
(0 0 7732.45)
(0 0 7375.23)
(0 0 6494.59)
(0 0 6724.88)
(0 0 5066.43)
(0 0 3345.88)
(0 0 3897.37)
(0 0 3435.72)
(0 0 3806.03)
(0 0 3284.48)
(0 0 3812.14)
(0 0 3863.13)
(0 0 3065.77)
(0 0 3551.39)
(0 0 3040.53)
(0 0 3458.84)
(0 0 3010.26)
(0 0 3471)
(0 0 3233.24)
(0 0 2443.53)
(0 0 2818.47)
(0 0 1989.83)
(0 0 2138.5)
(0 0 1497.49)
(0 0 1391.94)
(0 0 1551.06)
(0 0 969.718)
(0 0 1003.25)
(0 0 714.914)
(0 0 787.467)
(0 0 798.647)
(0 0 759.2)
(0 0 1018.73)
(0 0 747.291)
(0 0 526.495)
(0 0 736.956)
(0 0 57.4325)
(0 0 -455.815)
(0 0 -358.252)
(0 0 -967.389)
(0 0 -783.099)
(0 0 -1360.93)
(0 0 -1204.39)
(0 0 -1445.62)
(0 0 -1235.43)
(0 0 -1156.38)
(0 0 -560.822)
(0 0 -492.659)
(0 0 108.538)
(0 0 34.955)
(0 0 -118.664)
(0 0 -58.7552)
(0 0 94.7343)
(0 0 334.551)
(0 0 695.696)
(0 0 858.182)
(0 0 -899.805)
(0 0 -2055.01)
(0 0 -3683.92)
(0 0 -4442.23)
(0 0 -5307.53)
(0 0 -4980.8)
(0 0 -5382.79)
(0 0 -5946.73)
(0 0 -8239.35)
(0 0 -8326.06)
(0 0 -8709.43)
(0 0 -9235.62)
(0 0 -10575.8)
(0 0 -13431.2)
(0 0 -15182.7)
(0 0 -14142.7)
(0 0 -10736.5)
(0 0 -9274.01)
(0 0 -8608.91)
(0 0 -6413.52)
(0 0 1495.57)
(0 0 8849.1)
(0 0 15445.4)
(0 0 13319.5)
(0 0 6200.04)
(0 0 9698.9)
(0 0 -3169.93)
(0 0 -8409.3)
(0 0 -10978.9)
(0 0 -3615.89)
(0 0 2291.02)
(0 0 1785.78)
(0 0 5577.71)
(0 0 10221.7)
(0 0 10996.1)
(0 0 12513.3)
(0 0 7272.69)
(0 0 7005.75)
(0 0 5195.4)
(0 0 6078.13)
(0 0 8365.13)
(0 0 12743.1)
(0 0 11883.5)
(0 0 8378.39)
(0 0 7711.23)
(0 0 6329.23)
(0 0 6345.33)
(0 0 5192.75)
(0 0 4055.08)
(0 0 3604.47)
(0 0 2930.27)
(0 0 3360.85)
(0 0 2890.39)
(0 0 3173.81)
(0 0 2646.41)
(0 0 3018.41)
(0 0 2739.15)
(0 0 3183.28)
(0 0 2727.23)
(0 0 3069.56)
(0 0 2684.95)
(0 0 3088.57)
(0 0 2746.71)
(0 0 3050.13)
(0 0 2950.15)
(0 0 2095.37)
(0 0 2167.65)
(0 0 1621.97)
(0 0 1816.33)
(0 0 1374.46)
(0 0 799.633)
(0 0 976.306)
(0 0 931.194)
(0 0 827.539)
(0 0 890.979)
(0 0 988.209)
(0 0 935.561)
(0 0 1172.14)
(0 0 731.621)
(0 0 895.825)
(0 0 207.502)
(0 0 37.3964)
(0 0 -532.669)
(0 0 -1040.99)
(0 0 -773.796)
(0 0 -979.332)
(0 0 -1279.84)
(0 0 -1155.41)
(0 0 -1106.08)
(0 0 -901.119)
(0 0 -574.637)
(0 0 -203.576)
(0 0 2.42829)
(0 0 34.7962)
(0 0 -70.1628)
(0 0 -14.7273)
(0 0 90.6543)
(0 0 498.659)
(0 0 654.811)
(0 0 1019.72)
(0 0 -1131.86)
(0 0 -2234.52)
(0 0 -3182.51)
(0 0 -3854.7)
(0 0 -3679.76)
(0 0 -3460.21)
(0 0 -3376.13)
(0 0 -4378.18)
(0 0 -6722.23)
(0 0 -8651.26)
(0 0 -8970.75)
(0 0 -8310.61)
(0 0 -10519.1)
(0 0 -13526.7)
(0 0 -13884.4)
(0 0 -8140.59)
(0 0 3575.4)
(0 0 3106.98)
(0 0 -62.173)
(0 0 -6269.96)
(0 0 -2323.23)
(0 0 5538.42)
(0 0 9863.72)
(0 0 12881.7)
(0 0 4956.14)
(0 0 9295.55)
(0 0 4956.97)
(0 0 -9749.53)
(0 0 -7313.43)
(0 0 5696.12)
(0 0 1956.99)
(0 0 -794.589)
(0 0 2217.63)
(0 0 8821.18)
(0 0 13284.5)
(0 0 9522.27)
(0 0 2380.47)
(0 0 5702.33)
(0 0 7279.16)
(0 0 10978.8)
(0 0 7760.27)
(0 0 12171.5)
(0 0 11610)
(0 0 9133.28)
(0 0 8388.75)
(0 0 7238.14)
(0 0 6869.67)
(0 0 5400.06)
(0 0 5013.4)
(0 0 3079.82)
(0 0 3250.74)
(0 0 2679.32)
(0 0 2966.91)
(0 0 2477.99)
(0 0 2755.19)
(0 0 2304.71)
(0 0 2828.28)
(0 0 2524.59)
(0 0 2823.28)
(0 0 2423.78)
(0 0 2731.03)
(0 0 2382.08)
(0 0 2765.82)
(0 0 2437.48)
(0 0 2714.21)
(0 0 2483.35)
(0 0 1865.81)
(0 0 1985.67)
(0 0 1605.18)
(0 0 807.723)
(0 0 850.044)
(0 0 1314.35)
(0 0 836.457)
(0 0 927.683)
(0 0 938.697)
(0 0 952.956)
(0 0 1131.74)
(0 0 1002.86)
(0 0 1134.03)
(0 0 690.742)
(0 0 556.815)
(0 0 -41.2933)
(0 0 -203.771)
(0 0 -957.164)
(0 0 -1294.05)
(0 0 -1199.71)
(0 0 -1108.79)
(0 0 -1003.4)
(0 0 -1102.61)
(0 0 -733.644)
(0 0 -727.126)
(0 0 140.979)
(0 0 -7.66403)
(0 0 -4.94561)
(0 0 -43.385)
(0 0 32.6299)
(0 0 229.647)
(0 0 421.777)
(0 0 694.682)
(0 0 902.878)
(0 0 -1046.82)
(0 0 -1903.27)
(0 0 -2517.44)
(0 0 -2734.83)
(0 0 -2532.24)
(0 0 -2265.64)
(0 0 -2259.15)
(0 0 -3160.77)
(0 0 -3415.72)
(0 0 -6395.63)
(0 0 -8284.65)
(0 0 -7501.51)
(0 0 -9658.68)
(0 0 -12619.4)
(0 0 -9769.2)
(0 0 -1868.28)
(0 0 6448.4)
(0 0 15304.1)
(0 0 11036.7)
(0 0 -521.749)
(0 0 -7479.86)
(0 0 -3666.48)
(0 0 -1582.55)
(0 0 -1529.56)
(0 0 -6197.94)
(0 0 5193.87)
(0 0 6251.24)
(0 0 -4116.65)
(0 0 -590.816)
(0 0 7225.66)
(0 0 2050.2)
(0 0 6481.32)
(0 0 11663)
(0 0 13945.3)
(0 0 20398.6)
(0 0 15055.2)
(0 0 10766.5)
(0 0 14051.8)
(0 0 20518.9)
(0 0 15934.2)
(0 0 8765.39)
(0 0 8973.49)
(0 0 11160.6)
(0 0 9821.4)
(0 0 9101.29)
(0 0 9197.63)
(0 0 7156.16)
(0 0 6345.02)
(0 0 5929.15)
(0 0 3685.51)
(0 0 3506.14)
(0 0 2500.04)
(0 0 2943.93)
(0 0 2468.97)
(0 0 2662.94)
(0 0 2240.54)
(0 0 2356.99)
(0 0 2729.54)
(0 0 2252.25)
(0 0 2611.44)
(0 0 2185.44)
(0 0 2465.24)
(0 0 2111.47)
(0 0 2433.92)
(0 0 2057.66)
(0 0 2433.09)
(0 0 2061.57)
(0 0 1782.55)
(0 0 1312.12)
(0 0 794.42)
(0 0 974.829)
(0 0 1284.29)
(0 0 992.938)
(0 0 803.899)
(0 0 956.395)
(0 0 1006.55)
(0 0 1018.03)
(0 0 1173.94)
(0 0 913.663)
(0 0 933.088)
(0 0 381.721)
(0 0 214.28)
(0 0 -539.77)
(0 0 -784.796)
(0 0 -1105.38)
(0 0 -950.704)
(0 0 -884.047)
(0 0 -1075.48)
(0 0 -677.648)
(0 0 -1002.84)
(0 0 -460.252)
(0 0 206.463)
(0 0 178.084)
(0 0 -29.321)
(0 0 -23.9943)
(0 0 112.626)
(0 0 219.195)
(0 0 430.243)
(0 0 689.825)
(0 0 746.954)
(0 0 -862.778)
(0 0 -1392.04)
(0 0 -1619.37)
(0 0 -1695.6)
(0 0 -1947.28)
(0 0 -1823.79)
(0 0 -2691.93)
(0 0 -3304.66)
(0 0 -2581.8)
(0 0 -4782.67)
(0 0 -6826.63)
(0 0 -6282.72)
(0 0 -8526.01)
(0 0 -10406.9)
(0 0 -6066.02)
(0 0 6244.9)
(0 0 17293.9)
(0 0 23316.4)
(0 0 14181.7)
(0 0 7841.53)
(0 0 -4701.58)
(0 0 -9385.51)
(0 0 -7983.92)
(0 0 -9346.7)
(0 0 -9936.07)
(0 0 -2942.74)
(0 0 3563.49)
(0 0 -2476.17)
(0 0 4784.56)
(0 0 4568.36)
(0 0 15331.6)
(0 0 21097.5)
(0 0 19983.8)
(0 0 12823.4)
(0 0 19831.4)
(0 0 20513.2)
(0 0 19387.8)
(0 0 20113.9)
(0 0 18242.9)
(0 0 21356.4)
(0 0 6140.37)
(0 0 7562.52)
(0 0 11603.8)
(0 0 10560.7)
(0 0 11292.6)
(0 0 10202.4)
(0 0 8540.93)
(0 0 8245.22)
(0 0 6808.26)
(0 0 5659.42)
(0 0 4106.78)
(0 0 2523.4)
(0 0 2609.7)
(0 0 2959.1)
(0 0 2678.56)
(0 0 2866.1)
(0 0 2518.34)
(0 0 2703.7)
(0 0 2288.11)
(0 0 2248.49)
(0 0 2333.01)
(0 0 2021.23)
(0 0 2142.11)
(0 0 1788.23)
(0 0 1940.81)
(0 0 2209.13)
(0 0 1496.91)
(0 0 1182.7)
(0 0 1088.97)
(0 0 1052.39)
(0 0 1299.76)
(0 0 959.925)
(0 0 779.928)
(0 0 846.6)
(0 0 852.352)
(0 0 975.65)
(0 0 1077.45)
(0 0 1004.6)
(0 0 1076.48)
(0 0 676.583)
(0 0 598.077)
(0 0 42.9598)
(0 0 -657.373)
(0 0 -690.385)
(0 0 -806.976)
(0 0 -598.508)
(0 0 -941.236)
(0 0 -541.715)
(0 0 -461.349)
(0 0 -878.007)
(0 0 -128.911)
(0 0 -130.64)
(0 0 24.0838)
(0 0 177.384)
(0 0 -7.7448)
(0 0 209.59)
(0 0 274.508)
(0 0 424.227)
(0 0 660.943)
(0 0 425.349)
(0 0 -589.398)
(0 0 -1015.8)
(0 0 -945.711)
(0 0 -1231.34)
(0 0 -1248.75)
(0 0 -1929.93)
(0 0 -1985.14)
(0 0 -1969.22)
(0 0 -2374.03)
(0 0 -3478.56)
(0 0 -5927.53)
(0 0 -5642.68)
(0 0 -7189.14)
(0 0 -7022.14)
(0 0 -1583.16)
(0 0 6416.54)
(0 0 14271.9)
(0 0 12308.4)
(0 0 7738.67)
(0 0 7746.41)
(0 0 -739.642)
(0 0 -6021.44)
(0 0 -6551.99)
(0 0 -8248.46)
(0 0 -11820.8)
(0 0 -10346.9)
(0 0 -145.922)
(0 0 -987.723)
(0 0 2845.16)
(0 0 3719.48)
(0 0 20940.6)
(0 0 16480.9)
(0 0 22665.5)
(0 0 15694.8)
(0 0 16352)
(0 0 16683.5)
(0 0 19198.5)
(0 0 19680.2)
(0 0 8131.62)
(0 0 23064.6)
(0 0 6131.92)
(0 0 6841.35)
(0 0 8393.48)
(0 0 11216.5)
(0 0 11881.4)
(0 0 11786.4)
(0 0 9506.28)
(0 0 8972)
(0 0 9136.1)
(0 0 7321.52)
(0 0 4810.64)
(0 0 3890.02)
(0 0 3906.79)
(0 0 3022.15)
(0 0 3233.43)
(0 0 2794.46)
(0 0 2982.52)
(0 0 2692.35)
(0 0 2912.25)
(0 0 2613.78)
(0 0 2100.44)
(0 0 2338.88)
(0 0 1790.82)
(0 0 1822.92)
(0 0 2281.37)
(0 0 1772.46)
(0 0 1923.56)
(0 0 1570.31)
(0 0 1672.95)
(0 0 1538.06)
(0 0 1020.15)
(0 0 1207.56)
(0 0 955.712)
(0 0 647.254)
(0 0 868.358)
(0 0 885.8)
(0 0 1011.74)
(0 0 1061.08)
(0 0 867.32)
(0 0 838.727)
(0 0 361.663)
(0 0 109.402)
(0 0 -510.269)
(0 0 -326.963)
(0 0 -326.83)
(0 0 -704.23)
(0 0 -651.376)
(0 0 -843.973)
(0 0 -166.539)
(0 0 -253.931)
(0 0 -560.932)
(0 0 153.215)
(0 0 204.286)
(0 0 136.482)
(0 0 102.303)
(0 0 284.719)
(0 0 294.136)
(0 0 373.99)
(0 0 584.322)
(0 0 197.494)
(0 0 -370.068)
(0 0 -406.548)
(0 0 -400.377)
(0 0 -105.496)
(0 0 -830.293)
(0 0 -911.186)
(0 0 -1659.56)
(0 0 -1287.38)
(0 0 -1942.64)
(0 0 -2601.54)
(0 0 -4993.53)
(0 0 -5549.05)
(0 0 -5176.73)
(0 0 -4932.5)
(0 0 71.6452)
(0 0 7061.56)
(0 0 14683.8)
(0 0 8109.68)
(0 0 -88.2138)
(0 0 6392.58)
(0 0 398.493)
(0 0 -584.92)
(0 0 -2428.01)
(0 0 -5382.94)
(0 0 -8500.35)
(0 0 -7936.14)
(0 0 -678.701)
(0 0 -2007.43)
(0 0 2713.45)
(0 0 5126.56)
(0 0 18988.8)
(0 0 15547.4)
(0 0 12319.3)
(0 0 21275.9)
(0 0 14308.1)
(0 0 14922.6)
(0 0 15701.7)
(0 0 6726.23)
(0 0 1415.27)
(0 0 19818.5)
(0 0 9218.86)
(0 0 7141.13)
(0 0 8322.81)
(0 0 10166.5)
(0 0 10042.3)
(0 0 9919.46)
(0 0 9478.35)
(0 0 9694.95)
(0 0 11054.4)
(0 0 9478.05)
(0 0 6711.89)
(0 0 5821.97)
(0 0 4352.12)
(0 0 3814.02)
(0 0 3043.62)
(0 0 3233.35)
(0 0 2820.51)
(0 0 3033.29)
(0 0 2574.16)
(0 0 2647.14)
(0 0 2214.6)
(0 0 2363.34)
(0 0 1981.01)
(0 0 2125.48)
(0 0 1787.06)
(0 0 1897.46)
(0 0 1642.4)
(0 0 2030.28)
(0 0 1468.85)
(0 0 1511.36)
(0 0 1027.3)
(0 0 1042.83)
(0 0 743.464)
(0 0 792.768)
(0 0 703.117)
(0 0 836.244)
(0 0 952.166)
(0 0 962.893)
(0 0 930.008)
(0 0 603.551)
(0 0 476.381)
(0 0 -44.7103)
(0 0 -126.438)
(0 0 54.5901)
(0 0 -381.808)
(0 0 -558.892)
(0 0 -1034.26)
(0 0 -601.701)
(0 0 -786.508)
(0 0 -75.7598)
(0 0 -452.585)
(0 0 -188.886)
(0 0 -122.106)
(0 0 459.724)
(0 0 304.745)
(0 0 257.425)
(0 0 184.652)
(0 0 352.5)
(0 0 270.809)
(0 0 56.6989)
(0 0 -213.732)
(0 0 -97.214)
(0 0 786.343)
(0 0 1002.19)
(0 0 -99.3321)
(0 0 -551.795)
(0 0 -525.153)
(0 0 -947.153)
(0 0 -1042.61)
(0 0 -2055.41)
(0 0 -3739.17)
(0 0 -4750.11)
(0 0 -4857.37)
(0 0 -5565.8)
(0 0 1084.93)
(0 0 11263.9)
(0 0 12600.6)
(0 0 2206.93)
(0 0 -3802.67)
(0 0 9281.92)
(0 0 6475.97)
(0 0 227.795)
(0 0 -730.825)
(0 0 3361.94)
(0 0 3248.12)
(0 0 -1361.26)
(0 0 -1385.05)
(0 0 2951.55)
(0 0 6324.46)
(0 0 8191.55)
(0 0 11275.9)
(0 0 7234.13)
(0 0 3355.56)
(0 0 12174.7)
(0 0 3514.94)
(0 0 10505.6)
(0 0 15725)
(0 0 4285.99)
(0 0 -2169.91)
(0 0 16639.1)
(0 0 11882.5)
(0 0 16078.4)
(0 0 10661)
(0 0 12747.6)
(0 0 9992.12)
(0 0 8643.02)
(0 0 8738.01)
(0 0 8375.04)
(0 0 11467.8)
(0 0 11236.2)
(0 0 8904.87)
(0 0 7046.36)
(0 0 5767.1)
(0 0 4381.13)
(0 0 3458.04)
(0 0 2965.63)
(0 0 3193.2)
(0 0 2877.93)
(0 0 2958.34)
(0 0 2477.23)
(0 0 2434.98)
(0 0 2173)
(0 0 2177.91)
(0 0 1923.41)
(0 0 1860.53)
(0 0 1507.5)
(0 0 1619.23)
(0 0 2039.38)
(0 0 1683.18)
(0 0 1318.46)
(0 0 1274.03)
(0 0 715.083)
(0 0 865.72)
(0 0 606.715)
(0 0 697.536)
(0 0 676.922)
(0 0 881.065)
(0 0 912.334)
(0 0 836.441)
(0 0 664.616)
(0 0 254.609)
(0 0 72.5697)
(0 0 262.596)
(0 0 129.455)
(0 0 -241.029)
(0 0 -1004.98)
(0 0 -961.716)
(0 0 -1273.95)
(0 0 -1050.19)
(0 0 -450.714)
(0 0 46.7747)
(0 0 87.5175)
(0 0 -3.99728)
(0 0 389.904)
(0 0 250.876)
(0 0 96.2339)
(0 0 227.883)
(0 0 83.39)
(0 0 365.715)
(0 0 67.5468)
(0 0 -224.168)
(0 0 733.324)
(0 0 1229.96)
(0 0 1766.17)
(0 0 881.709)
(0 0 824.733)
(0 0 141.743)
(0 0 307.135)
(0 0 -771.92)
(0 0 -1194.22)
(0 0 -2721.12)
(0 0 -3441.08)
(0 0 -3894.91)
(0 0 -5626.63)
(0 0 3004.51)
(0 0 14540.6)
(0 0 10954.9)
(0 0 -1371.04)
(0 0 2861.01)
(0 0 4693.26)
(0 0 7944.64)
(0 0 -2489.61)
(0 0 -1148.67)
(0 0 908.132)
(0 0 7942.89)
(0 0 7522.7)
(0 0 8885.63)
(0 0 11298.1)
(0 0 12864.3)
(0 0 11827.7)
(0 0 8509.66)
(0 0 -1657.64)
(0 0 -312.644)
(0 0 1417.68)
(0 0 3933.48)
(0 0 6802.82)
(0 0 9557.37)
(0 0 2918.01)
(0 0 -655.51)
(0 0 10626.8)
(0 0 14768.8)
(0 0 19438.9)
(0 0 12840.7)
(0 0 17592.4)
(0 0 14922.8)
(0 0 10653.9)
(0 0 7602.73)
(0 0 6466.33)
(0 0 9893.13)
(0 0 11809.6)
(0 0 10071.6)
(0 0 7933.7)
(0 0 6271.74)
(0 0 4419.44)
(0 0 3291.14)
(0 0 3215.24)
(0 0 2950.15)
(0 0 3249.86)
(0 0 2879.45)
(0 0 2849.35)
(0 0 2204.24)
(0 0 2428.01)
(0 0 2019.66)
(0 0 2143.06)
(0 0 1588.85)
(0 0 1536.53)
(0 0 1800.16)
(0 0 1667.78)
(0 0 1342.34)
(0 0 1613.94)
(0 0 1297.87)
(0 0 714.053)
(0 0 653.663)
(0 0 678.483)
(0 0 503.616)
(0 0 599.255)
(0 0 737.123)
(0 0 837.373)
(0 0 817.356)
(0 0 572.004)
(0 0 283.559)
(0 0 339.007)
(0 0 415.9)
(0 0 314.723)
(0 0 -590.415)
(0 0 -907.19)
(0 0 -1187.53)
(0 0 -575.645)
(0 0 -794.816)
(0 0 -71.8431)
(0 0 -354.385)
(0 0 -179.648)
(0 0 170.417)
(0 0 150.99)
(0 0 -7.6122)
(0 0 158.953)
(0 0 -13.0589)
(0 0 248.031)
(0 0 148.866)
(0 0 117.52)
(0 0 271.031)
(0 0 981.224)
(0 0 2289.61)
(0 0 1948.01)
(0 0 2033.08)
(0 0 1253.35)
(0 0 1053.68)
(0 0 607.18)
(0 0 61.3557)
(0 0 -656.018)
(0 0 -1323.33)
(0 0 -2495.92)
(0 0 -3639.28)
(0 0 -4723.27)
(0 0 4886.15)
(0 0 14539.7)
(0 0 2357.11)
(0 0 -3578.2)
(0 0 6441)
(0 0 1540.64)
(0 0 1497.97)
(0 0 376.243)
(0 0 -179.36)
(0 0 -4029.51)
(0 0 3653.65)
(0 0 3824.82)
(0 0 11945.9)
(0 0 20676.3)
(0 0 16864)
(0 0 5466.44)
(0 0 2824.73)
(0 0 -1799.42)
(0 0 -3060.19)
(0 0 -2483.91)
(0 0 -4084.1)
(0 0 107.594)
(0 0 1261.22)
(0 0 8616.99)
(0 0 4529.24)
(0 0 5693.94)
(0 0 17018)
(0 0 17848.5)
(0 0 11530.5)
(0 0 12995.6)
(0 0 14904.9)
(0 0 9551.21)
(0 0 5962.22)
(0 0 6127.15)
(0 0 9184.19)
(0 0 11553.8)
(0 0 10664.2)
(0 0 8746.17)
(0 0 6906.81)
(0 0 5086.9)
(0 0 4125.96)
(0 0 3086.68)
(0 0 3174.45)
(0 0 3097.61)
(0 0 3322.92)
(0 0 2991.76)
(0 0 2212.47)
(0 0 2322.31)
(0 0 2097.45)
(0 0 2123.6)
(0 0 1655.35)
(0 0 1741.89)
(0 0 1575.13)
(0 0 1208.97)
(0 0 1518.37)
(0 0 1501.21)
(0 0 1077.62)
(0 0 1021.41)
(0 0 787.292)
(0 0 475.67)
(0 0 515.088)
(0 0 351.642)
(0 0 679.149)
(0 0 677.068)
(0 0 805.254)
(0 0 543.847)
(0 0 446.644)
(0 0 520.401)
(0 0 651.507)
(0 0 73.2307)
(0 0 -537.243)
(0 0 -1203.83)
(0 0 -952.654)
(0 0 1.64674)
(0 0 -99.0055)
(0 0 -439.768)
(0 0 -119.277)
(0 0 -116.758)
(0 0 -16.2277)
(0 0 -203.587)
(0 0 40.4978)
(0 0 -70.3747)
(0 0 181.231)
(0 0 40.8184)
(0 0 452.383)
(0 0 47.8425)
(0 0 601.832)
(0 0 1263.41)
(0 0 2489.5)
(0 0 2675.27)
(0 0 2669.05)
(0 0 2188.82)
(0 0 1165.87)
(0 0 1344.79)
(0 0 532.562)
(0 0 -236.299)
(0 0 -1201.86)
(0 0 -653.529)
(0 0 -4207.34)
(0 0 -3242.51)
(0 0 6881.06)
(0 0 14138.8)
(0 0 -7340.54)
(0 0 -1532.08)
(0 0 3577.55)
(0 0 -3089.84)
(0 0 -2229.39)
(0 0 4788.33)
(0 0 -1684.91)
(0 0 -5896.7)
(0 0 -1595.08)
(0 0 -2102.76)
(0 0 2779.22)
(0 0 7958.99)
(0 0 13768.5)
(0 0 4481.95)
(0 0 -1786.02)
(0 0 -1256.43)
(0 0 -2359.65)
(0 0 -3342.2)
(0 0 -5386.23)
(0 0 -4585.11)
(0 0 -5001.3)
(0 0 1349.65)
(0 0 1619.21)
(0 0 5874.68)
(0 0 9762.87)
(0 0 7453.65)
(0 0 7998.39)
(0 0 9465.05)
(0 0 13435.6)
(0 0 10381.6)
(0 0 6465.92)
(0 0 6827.43)
(0 0 8911.39)
(0 0 10192.1)
(0 0 10104.5)
(0 0 8818.49)
(0 0 7528.93)
(0 0 5906.86)
(0 0 4557.7)
(0 0 3514.66)
(0 0 2960.8)
(0 0 3280.93)
(0 0 3282)
(0 0 2735.71)
(0 0 2602.25)
(0 0 2075.73)
(0 0 2290.14)
(0 0 2005.14)
(0 0 1981.11)
(0 0 1502.79)
(0 0 1199.02)
(0 0 1353.63)
(0 0 1199.2)
(0 0 1156.74)
(0 0 1231.99)
(0 0 839.948)
(0 0 576.238)
(0 0 563.31)
(0 0 298.561)
(0 0 221.73)
(0 0 465.136)
(0 0 648.219)
(0 0 692.886)
(0 0 737.998)
(0 0 556.736)
(0 0 784.529)
(0 0 570.728)
(0 0 114.641)
(0 0 -887.608)
(0 0 -680.773)
(0 0 -238.88)
(0 0 39.3567)
(0 0 -532.29)
(0 0 -180.251)
(0 0 -494.624)
(0 0 25.5546)
(0 0 -267.383)
(0 0 -123.396)
(0 0 -214.103)
(0 0 11.3841)
(0 0 -113.173)
(0 0 403.658)
(0 0 373.019)
(0 0 -52.6581)
(0 0 897.62)
(0 0 1492.49)
(0 0 1848.83)
(0 0 1893.56)
(0 0 2149.31)
(0 0 1993.62)
(0 0 1381.22)
(0 0 1205.13)
(0 0 525.351)
(0 0 611.409)
(0 0 -1232.58)
(0 0 740.781)
(0 0 -4564.44)
(0 0 -1401.59)
(0 0 10992.3)
(0 0 9608.68)
(0 0 -11281.3)
(0 0 -7494.37)
(0 0 -6720.94)
(0 0 -9924.03)
(0 0 -2416.39)
(0 0 6913.66)
(0 0 -312.649)
(0 0 -985.975)
(0 0 1258.05)
(0 0 713.226)
(0 0 -2611.22)
(0 0 -4576.6)
(0 0 -5208.95)
(0 0 -1815.27)
(0 0 -4977.57)
(0 0 -503.483)
(0 0 -1428.34)
(0 0 -4053.22)
(0 0 -4428.3)
(0 0 -5039.12)
(0 0 -6030.5)
(0 0 -2984.49)
(0 0 -4882.62)
(0 0 -1644.74)
(0 0 -1708.14)
(0 0 1618.26)
(0 0 2231.92)
(0 0 5564.91)
(0 0 7543.25)
(0 0 9160.14)
(0 0 6863.5)
(0 0 7744.04)
(0 0 9259.74)
(0 0 8923.11)
(0 0 9577.05)
(0 0 8422.58)
(0 0 7389.48)
(0 0 6524.53)
(0 0 5084.27)
(0 0 3526.28)
(0 0 3111.62)
(0 0 3039.61)
(0 0 2911.3)
(0 0 2898.68)
(0 0 2461.86)
(0 0 2057.15)
(0 0 2170.14)
(0 0 2062.8)
(0 0 1820.9)
(0 0 1718.03)
(0 0 1394.83)
(0 0 1178.27)
(0 0 1333.58)
(0 0 1158.31)
(0 0 1119.54)
(0 0 1055.99)
(0 0 609.266)
(0 0 345.7)
(0 0 381.087)
(0 0 -254.74)
(0 0 438.027)
(0 0 391.014)
(0 0 770.648)
(0 0 674.452)
(0 0 909.821)
(0 0 708.057)
(0 0 686.137)
(0 0 -274.67)
(0 0 -638.902)
(0 0 -481.536)
(0 0 -662.871)
(0 0 -474.162)
(0 0 -122.071)
(0 0 -464.296)
(0 0 -494.347)
(0 0 -189.171)
(0 0 -187.657)
(0 0 -371.316)
(0 0 -167.974)
(0 0 -357.102)
(0 0 -5.67036)
(0 0 337.092)
(0 0 91.8919)
(0 0 -74.3644)
(0 0 960.596)
(0 0 1627.22)
(0 0 1772.77)
(0 0 2210.35)
(0 0 1673.12)
(0 0 1330.87)
(0 0 1570.98)
(0 0 2025.5)
(0 0 477.054)
(0 0 1541.46)
(0 0 -829.107)
(0 0 1233.34)
(0 0 -3455.41)
(0 0 814.341)
(0 0 12602.2)
(0 0 2766.64)
(0 0 -12750.8)
(0 0 -12084.8)
(0 0 -11743.9)
(0 0 -11612.1)
(0 0 269.05)
(0 0 12094.4)
(0 0 -199.66)
(0 0 1299.07)
(0 0 9531.98)
(0 0 -2980.3)
(0 0 -10634.3)
(0 0 -6954.5)
(0 0 -10402.3)
(0 0 -5476.04)
(0 0 -5641.01)
(0 0 -2017.21)
(0 0 1446.54)
(0 0 -1969.5)
(0 0 -1537.93)
(0 0 -5926.54)
(0 0 -5925.25)
(0 0 -5257.09)
(0 0 -352.149)
(0 0 -900.208)
(0 0 -4131.46)
(0 0 -3943.64)
(0 0 -133.559)
(0 0 2438.78)
(0 0 5607.78)
(0 0 5779.07)
(0 0 10263.3)
(0 0 8803.65)
(0 0 8681.19)
(0 0 6846.68)
(0 0 8302.31)
(0 0 7408.05)
(0 0 6646.37)
(0 0 6041.13)
(0 0 5067.14)
(0 0 4142.51)
(0 0 3139.72)
(0 0 2625.94)
(0 0 2908.41)
(0 0 2781.41)
(0 0 2655.54)
(0 0 2313.56)
(0 0 2068.28)
(0 0 1650.26)
(0 0 1827.62)
(0 0 1531.29)
(0 0 1226.86)
(0 0 1267.48)
(0 0 1135.47)
(0 0 1314.87)
(0 0 1313.5)
(0 0 952.999)
(0 0 825.811)
(0 0 416.83)
(0 0 263.083)
(0 0 -459.855)
(0 0 82.899)
(0 0 316.253)
(0 0 513.294)
(0 0 846.41)
(0 0 696.814)
(0 0 884.995)
(0 0 283.976)
(0 0 -379.689)
(0 0 -1027.91)
(0 0 -861.421)
(0 0 -623.311)
(0 0 -33.9177)
(0 0 -442.697)
(0 0 -90.6168)
(0 0 -311.974)
(0 0 -120.524)
(0 0 -367.931)
(0 0 -284.569)
(0 0 -423.402)
(0 0 -82.5439)
(0 0 -151.475)
(0 0 0.204003)
(0 0 58.1622)
(0 0 148.909)
(0 0 1048.48)
(0 0 1325.13)
(0 0 1696.36)
(0 0 1696.29)
(0 0 1857.31)
(0 0 1850.48)
(0 0 1298.71)
(0 0 1333.63)
(0 0 416.196)
(0 0 1799.97)
(0 0 313.49)
(0 0 1631.94)
(0 0 -3219.3)
(0 0 4216.2)
(0 0 12607.2)
(0 0 -3753.33)
(0 0 -15165.9)
(0 0 -12236.3)
(0 0 -11522.6)
(0 0 -6715.78)
(0 0 6024.03)
(0 0 697.564)
(0 0 -10778.8)
(0 0 -5556.28)
(0 0 -3320.38)
(0 0 -2932.05)
(0 0 -5554.86)
(0 0 -10429.4)
(0 0 -11477.3)
(0 0 -7753.02)
(0 0 -4478.16)
(0 0 -2534.88)
(0 0 2394.21)
(0 0 -197.892)
(0 0 1480.44)
(0 0 -5795.04)
(0 0 -5116.35)
(0 0 -4715.8)
(0 0 -4548.8)
(0 0 -2807.76)
(0 0 -4013.18)
(0 0 -4436.89)
(0 0 -2165.96)
(0 0 1756.26)
(0 0 3815.06)
(0 0 4216.7)
(0 0 11151.6)
(0 0 7297.61)
(0 0 5810.12)
(0 0 4649.46)
(0 0 6361.38)
(0 0 6304.87)
(0 0 5791.07)
(0 0 5176.99)
(0 0 5224.86)
(0 0 4357.05)
(0 0 2984.77)
(0 0 2852.39)
(0 0 2779.29)
(0 0 2793.47)
(0 0 2498.64)
(0 0 2217.98)
(0 0 1743.5)
(0 0 1788.23)
(0 0 1616.99)
(0 0 1668.09)
(0 0 1315.09)
(0 0 1083.91)
(0 0 1180.71)
(0 0 1069.61)
(0 0 1220.21)
(0 0 1145.92)
(0 0 660.762)
(0 0 605.87)
(0 0 -0.535556)
(0 0 -367.159)
(0 0 -481.454)
(0 0 434.94)
(0 0 520.698)
(0 0 483.406)
(0 0 1056.84)
(0 0 563.335)
(0 0 119.34)
(0 0 -886.137)
(0 0 -783.922)
(0 0 -850.509)
(0 0 -159.909)
(0 0 -564.256)
(0 0 -190.421)
(0 0 -304.464)
(0 0 -122.549)
(0 0 -330.058)
(0 0 -290.769)
(0 0 -546.681)
(0 0 -309.031)
(0 0 -414.548)
(0 0 201.443)
(0 0 445.445)
(0 0 389.336)
(0 0 378.52)
(0 0 1072.32)
(0 0 938.012)
(0 0 1806.93)
(0 0 1838.43)
(0 0 1332.49)
(0 0 1065.7)
(0 0 1707.33)
(0 0 1431.13)
(0 0 429.577)
(0 0 1920.15)
(0 0 985.77)
(0 0 456.634)
(0 0 -2766.4)
(0 0 6525.03)
(0 0 12975.6)
(0 0 -11163)
(0 0 -14934.7)
(0 0 -10609.4)
(0 0 -13998.2)
(0 0 -6765.03)
(0 0 534.508)
(0 0 777.234)
(0 0 -9865.38)
(0 0 -12017.6)
(0 0 -11111.4)
(0 0 -11152.8)
(0 0 -10237.6)
(0 0 -11781.6)
(0 0 -12408.9)
(0 0 -8737.09)
(0 0 -3485.06)
(0 0 1182.75)
(0 0 -1031.06)
(0 0 4671.81)
(0 0 2319.61)
(0 0 -7627.81)
(0 0 -4672.27)
(0 0 -4224.95)
(0 0 -4421.98)
(0 0 -2666.4)
(0 0 -2390.67)
(0 0 -4731.02)
(0 0 -3741.22)
(0 0 1118.06)
(0 0 1214.34)
(0 0 3852.84)
(0 0 10610.3)
(0 0 5852.87)
(0 0 3361.39)
(0 0 2555.3)
(0 0 3212.21)
(0 0 3982.97)
(0 0 3971.63)
(0 0 4251.84)
(0 0 4599.86)
(0 0 4120.94)
(0 0 3022.74)
(0 0 2783.68)
(0 0 2772.13)
(0 0 2633.94)
(0 0 2517.05)
(0 0 2060.06)
(0 0 1704.4)
(0 0 1550.4)
(0 0 1523.08)
(0 0 1521.42)
(0 0 1154.95)
(0 0 1139.03)
(0 0 969.27)
(0 0 1095.61)
(0 0 979.759)
(0 0 1093.15)
(0 0 708.449)
(0 0 440.611)
(0 0 290.916)
(0 0 -885.237)
(0 0 -310.259)
(0 0 -25.4318)
(0 0 798.627)
(0 0 498.52)
(0 0 498.758)
(0 0 619.788)
(0 0 -535.893)
(0 0 -751.627)
(0 0 -972.169)
(0 0 -344.992)
(0 0 -306.984)
(0 0 -81.9776)
(0 0 -557.079)
(0 0 -66.8528)
(0 0 -322.435)
(0 0 -284.655)
(0 0 -471.848)
(0 0 -433.138)
(0 0 -540.969)
(0 0 134.527)
(0 0 384.918)
(0 0 329.136)
(0 0 716.2)
(0 0 700.684)
(0 0 1010.52)
(0 0 847.46)
(0 0 1408.54)
(0 0 1146.53)
(0 0 1557.51)
(0 0 1570.56)
(0 0 1729.08)
(0 0 984.975)
(0 0 302.407)
(0 0 1760.35)
(0 0 760.117)
(0 0 -600.354)
(0 0 -2395.75)
(0 0 8238.71)
(0 0 9563.61)
(0 0 -13592.5)
(0 0 -13009.7)
(0 0 -8902.61)
(0 0 -13721.1)
(0 0 381.614)
(0 0 -8868.24)
(0 0 -13113.7)
(0 0 -16680.6)
(0 0 -16433.8)
(0 0 -16228.4)
(0 0 -15691.9)
(0 0 -12035.7)
(0 0 -12269.6)
(0 0 -12630.2)
(0 0 -8852.18)
(0 0 -2713.27)
(0 0 2943.08)
(0 0 -3385.32)
(0 0 3041.84)
(0 0 -1978.01)
(0 0 -4620)
(0 0 -1693.6)
(0 0 -4598.47)
(0 0 -4641.06)
(0 0 -625.799)
(0 0 -2260.74)
(0 0 -5319.94)
(0 0 -4183.53)
(0 0 223.78)
(0 0 -2744.28)
(0 0 1193.86)
(0 0 7518.76)
(0 0 4336.49)
(0 0 685.636)
(0 0 686.137)
(0 0 1493.23)
(0 0 1591.73)
(0 0 2485.02)
(0 0 3183.32)
(0 0 3360.38)
(0 0 3679.06)
(0 0 3060.95)
(0 0 2711.14)
(0 0 2676.93)
(0 0 2503.54)
(0 0 2355.72)
(0 0 2080.79)
(0 0 1557.31)
(0 0 1431.95)
(0 0 1565.51)
(0 0 1338.28)
(0 0 1222.44)
(0 0 977.463)
(0 0 976.975)
(0 0 869.75)
(0 0 1063)
(0 0 912.651)
(0 0 964.429)
(0 0 599.364)
(0 0 607.919)
(0 0 -333.663)
(0 0 -921.33)
(0 0 101.674)
(0 0 449.349)
(0 0 873.967)
(0 0 405.431)
(0 0 439.109)
(0 0 -576.249)
(0 0 -1024.66)
(0 0 -541.697)
(0 0 -306.538)
(0 0 200.947)
(0 0 -140.542)
(0 0 -489.71)
(0 0 -180.788)
(0 0 -170)
(0 0 -499.675)
(0 0 -413.456)
(0 0 -743.459)
(0 0 -295.464)
(0 0 38.9749)
(0 0 33.243)
(0 0 429.16)
(0 0 648.911)
(0 0 888.287)
(0 0 943.404)
(0 0 784.187)
(0 0 924.894)
(0 0 1167.5)
(0 0 1206.27)
(0 0 966.461)
(0 0 972.968)
(0 0 1047.64)
(0 0 574.623)
(0 0 1477.9)
(0 0 610.274)
(0 0 -1343.28)
(0 0 -1289.04)
(0 0 7705.74)
(0 0 4271.07)
(0 0 -12285.8)
(0 0 -11516.8)
(0 0 -8212.87)
(0 0 -13629.3)
(0 0 -6703.04)
(0 0 -14452.2)
(0 0 -19008.4)
(0 0 -19339.6)
(0 0 -18282.6)
(0 0 -17198.3)
(0 0 -15942.3)
(0 0 -13447.6)
(0 0 -10799.5)
(0 0 -8904.27)
(0 0 -7591.86)
(0 0 -3774.05)
(0 0 518.979)
(0 0 -4550.63)
(0 0 3141.91)
(0 0 -5489.31)
(0 0 -4053.98)
(0 0 -3314.37)
(0 0 -4558.8)
(0 0 -1715.11)
(0 0 -777.497)
(0 0 -3933.85)
(0 0 -6316.41)
(0 0 -2935.34)
(0 0 -2600.76)
(0 0 -5909.32)
(0 0 -2175.91)
(0 0 1587.19)
(0 0 3336.46)
(0 0 273.374)
(0 0 -560.396)
(0 0 94.202)
(0 0 1036.78)
(0 0 1309.11)
(0 0 1962.84)
(0 0 2760.07)
(0 0 3143.56)
(0 0 2965.62)
(0 0 2729.53)
(0 0 2443.07)
(0 0 2435.5)
(0 0 2181.91)
(0 0 2008.89)
(0 0 1462.64)
(0 0 1471.63)
(0 0 1396.19)
(0 0 1346.51)
(0 0 1077.91)
(0 0 998.548)
(0 0 780.807)
(0 0 872.059)
(0 0 865.255)
(0 0 1028.44)
(0 0 786.817)
(0 0 887.563)
(0 0 159.737)
(0 0 -229.494)
(0 0 -441.207)
(0 0 -386.815)
(0 0 501.376)
(0 0 404.156)
(0 0 576.928)
(0 0 -287.063)
(0 0 -515.398)
(0 0 -784.235)
(0 0 -448.172)
(0 0 199.442)
(0 0 208.996)
(0 0 -542.156)
(0 0 -284.938)
(0 0 -446.447)
(0 0 -259.734)
(0 0 -483.269)
(0 0 -617.169)
(0 0 -651.798)
(0 0 -743.207)
(0 0 -19.9508)
(0 0 84.5063)
(0 0 424.781)
(0 0 617.192)
(0 0 927.911)
(0 0 851.288)
(0 0 710.48)
(0 0 805.462)
(0 0 736.505)
(0 0 546.464)
(0 0 1297.97)
(0 0 898.929)
(0 0 714.848)
(0 0 515.005)
(0 0 1635.44)
(0 0 354.391)
(0 0 -1221.88)
(0 0 1188.78)
(0 0 6595.97)
(0 0 -1763.33)
(0 0 -15853)
(0 0 -11353.5)
(0 0 -7832.02)
(0 0 -10966)
(0 0 -7169.35)
(0 0 -15639.3)
(0 0 -21512.6)
(0 0 -19777.6)
(0 0 -18350.3)
(0 0 -18012.4)
(0 0 -16142.7)
(0 0 -14322.6)
(0 0 -11564.9)
(0 0 -9730.71)
(0 0 -7980.86)
(0 0 -4390.72)
(0 0 -2012.35)
(0 0 -6525.32)
(0 0 -2250.08)
(0 0 -8826.24)
(0 0 -5145.91)
(0 0 -5164.94)
(0 0 -4676.33)
(0 0 -2762.48)
(0 0 -1215.24)
(0 0 -4400.16)
(0 0 -6654.68)
(0 0 -4569.5)
(0 0 -6078.62)
(0 0 -8097.92)
(0 0 -5294.95)
(0 0 -1701.08)
(0 0 1049.42)
(0 0 1075.04)
(0 0 279.626)
(0 0 604.493)
(0 0 1136.36)
(0 0 1083.75)
(0 0 1741.43)
(0 0 2078.53)
(0 0 2797.11)
(0 0 2676.36)
(0 0 2460.1)
(0 0 2300.44)
(0 0 2272.22)
(0 0 2120.85)
(0 0 1879.88)
(0 0 1448.12)
(0 0 1222.15)
(0 0 1261.15)
(0 0 1185.78)
(0 0 1077.29)
(0 0 855.599)
(0 0 787.536)
(0 0 615.879)
(0 0 932.46)
(0 0 822.314)
(0 0 921.119)
(0 0 576.372)
(0 0 56.521)
(0 0 -1208.09)
(0 0 -1039.3)
(0 0 -196.21)
(0 0 -15.9865)
(0 0 376.398)
(0 0 -285.832)
(0 0 -419.2)
(0 0 -963.165)
(0 0 -787.953)
(0 0 -21.7785)
(0 0 -106.516)
(0 0 -252.119)
(0 0 -294.707)
(0 0 -481.098)
(0 0 -307.688)
(0 0 -425.923)
(0 0 -338.14)
(0 0 -529.163)
(0 0 -894.619)
(0 0 -439.356)
(0 0 -192.149)
(0 0 186.735)
(0 0 438.38)
(0 0 564.954)
(0 0 815.113)
(0 0 743.256)
(0 0 462.289)
(0 0 362.231)
(0 0 388.047)
(0 0 791.125)
(0 0 1102.5)
(0 0 1312.07)
(0 0 726.142)
(0 0 716.624)
(0 0 1549.36)
(0 0 266.397)
(0 0 -1217.7)
(0 0 3379.02)
(0 0 7204.68)
(0 0 -6986.77)
(0 0 -19274.6)
(0 0 -12197)
(0 0 -5506.75)
(0 0 -5758.9)
(0 0 -11311.8)
(0 0 -17515.6)
(0 0 -21404.5)
(0 0 -19278.2)
(0 0 -17365.7)
(0 0 -16691.5)
(0 0 -15966.2)
(0 0 -14074.9)
(0 0 -11568.2)
(0 0 -9664.05)
(0 0 -8022.94)
(0 0 -5403.97)
(0 0 -2618)
(0 0 -8478.85)
(0 0 -4563.22)
(0 0 -9845.58)
(0 0 -7061.28)
(0 0 -7577.07)
(0 0 -5866.84)
(0 0 -2737.54)
(0 0 -2187.91)
(0 0 -5471.04)
(0 0 -8919.01)
(0 0 -7469.95)
(0 0 -8498.56)