/*--------------------------------*- C++ -*----------------------------------*\
| =========                 |                                                 |
| \\      /  F ield         | foam-extend: Open Source CFD                    |
|  \\    /   O peration     | Version:     5.0                                |
|   \\  /    A nd           | Web:         http://www.foam-extend.org         |
|    \\/     M anipulation  |                                                 |
\*---------------------------------------------------------------------------*/
FoamFile
{
    version     2.0;
    format      ascii;
    class       volScalarField;
    location    "0.09";
    object      p;
}
// * * * * * * * * * * * * * * * * * * * * * * * * * * * * * * * * * * * * * //

dimensions      [1 -1 -2 0 0 0 0];

internalField   nonuniform List<scalar> 
4000
(
-2.78776e+06
-2.77884e+06
-2.77245e+06
-2.76552e+06
-2.75948e+06
-2.75962e+06
-2.76234e+06
-2.76374e+06
-2.76217e+06
-2.74876e+06
-2.7349e+06
-2.71441e+06
-2.68065e+06
-2.64342e+06
-2.58211e+06
-2.37905e+06
-2.05787e+06
-1.82014e+06
-1.71093e+06
-1.62001e+06
-1.53457e+06
-1.40776e+06
-1.26966e+06
-1.19756e+06
-1.15877e+06
-1.12193e+06
-1.19702e+06
-1.15865e+06
-983444
-895694
-769830
-594422
-520642
-502593
-521748
-528703
-513208
-500120
-433156
-357938
-312128
-281266
-235155
-164675
-116673
-91927.1
-64638.2
-39601.3
-11072.7
11890.8
24087.1
34606.6
46357.4
57544.7
64007.2
67814.9
69304
69657.7
68796.3
66840.1
63990.2
60107.9
56179.3
51248
47282.4
43319.4
39575.3
36689.7
32817
29638.9
27541.1
26163.2
24875.5
23440.4
21970.3
20003.9
17430.7
14769.3
12247.2
9737.4
8123.96
8807.83
10550.2
11046.5
9344.57
7086.13
5599.82
5550.6
5615.25
4693.58
4126.82
3481.87
2545.56
2433.46
3211.47
3654.13
3721.83
2831.6
1297.11
583.941
-2.78727e+06
-2.77827e+06
-2.77229e+06
-2.76552e+06
-2.75907e+06
-2.75814e+06
-2.76058e+06
-2.76241e+06
-2.76184e+06
-2.74739e+06
-2.73173e+06
-2.70513e+06
-2.67547e+06
-2.63809e+06
-2.5853e+06
-2.38555e+06
-2.06307e+06
-1.82538e+06
-1.71632e+06
-1.62271e+06
-1.53149e+06
-1.40797e+06
-1.27711e+06
-1.19718e+06
-1.16335e+06
-1.13564e+06
-1.20864e+06
-1.14883e+06
-963040
-898536
-754832
-586293
-506576
-484038
-502019
-503953
-490891
-470804
-411181
-349157
-303022
-274712
-230795
-161160
-115354
-90787.9
-63513.7
-38804
-10293.7
11902.8
23879.1
34293
46139
57137.8
63807.4
67563.9
68769.5
69309.1
68503.6
66494.7
63873.1
59737.1
55992.9
51003.9
47100
43157
39420.1
36623.6
32731.9
29576.4
27490
26135
24824
23362.6
21882.6
19899.6
17349.9
14714.2
12232.9
9753.11
8047.11
8699.15
10409.7
10956.4
9278
7106.75
5733.79
5685.52
5689.13
4744.67
4244.3
3577.44
2602.39
2489.44
3231.01
3671
3739.17
2870.34
1295.11
527.772
-2.78742e+06
-2.77783e+06
-2.77213e+06
-2.76528e+06
-2.75844e+06
-2.75577e+06
-2.75659e+06
-2.75903e+06
-2.75685e+06
-2.7408e+06
-2.72927e+06
-2.70046e+06
-2.66984e+06
-2.63576e+06
-2.60527e+06
-2.41287e+06
-2.07081e+06
-1.82575e+06
-1.71386e+06
-1.62265e+06
-1.53717e+06
-1.4137e+06
-1.28413e+06
-1.20895e+06
-1.17848e+06
-1.12813e+06
-1.18715e+06
-1.16071e+06
-972970
-926919
-777024
-587839
-501753
-471532
-487266
-491692
-487179
-463956
-403159
-346875
-299418
-272793
-229740
-159311
-115059
-89597.9
-61816.7
-37820.5
-9619.16
12126.6
23997
34316.2
46123.7
57039.5
63709.6
67563.5
68501.2
69185.5
68379
66264.6
63549.6
59620.2
55991.1
50823.9
46982.4
43010.2
39434.8
36519.8
32600.8
29588.1
27346.8
26035.1
24792.6
23322.7
21806.9
19848.6
17295.1
14614
12208.7
9692.28
7922.88
8582.24
10373.4
11018
9316.32
7082.62
5837.76
5770.72
5723.55
4831.93
4315.82
3635.55
2590.31
2535.42
3249.14
3695.93
3755.88
2937.5
1229.55
421.981
-2.78796e+06
-2.77697e+06
-2.77122e+06
-2.76434e+06
-2.75673e+06
-2.75209e+06
-2.7509e+06
-2.75231e+06
-2.74941e+06
-2.73344e+06
-2.72849e+06
-2.70437e+06
-2.6655e+06
-2.62868e+06
-2.62752e+06
-2.44513e+06
-2.06977e+06
-1.8196e+06
-1.71736e+06
-1.63101e+06
-1.54055e+06
-1.41464e+06
-1.28995e+06
-1.23816e+06
-1.20235e+06
-1.12429e+06
-1.15384e+06
-1.15243e+06
-971134
-947945
-821300
-607919
-520772
-482561
-493465
-492514
-493427
-467805
-405227
-353311
-301400
-268065
-229871
-158462
-114944
-88855.6
-59942.3
-35344.6
-9419.62
11964.1
24052.9
34562.8
46255.4
57119.7
63625.4
67497.8
68669.5
69403.8
68478.6
66221.9
63391.2
59601.1
55839.7
50964
47036
42980.5
39573.6
36471.7
32615
29489.4
27199.9
25955.6
24764.4
23243
21759.5
19791.9
17265.5
14553.5
12095.7
9640.14
7867.23
8509.29
10361.8
11189.3
9386.12
7058.84
5887.61
5795.85
5674.11
4862.45
4381.52
3563.46
2536.89
2562.2
3262.81
3703.23
3808.27
2959.02
1149.25
341.032
-2.78827e+06
-2.77525e+06
-2.76964e+06
-2.76272e+06
-2.75456e+06
-2.74833e+06
-2.74524e+06
-2.74484e+06
-2.7409e+06
-2.7274e+06
-2.72841e+06
-2.7108e+06
-2.66561e+06
-2.63685e+06
-2.65574e+06
-2.46276e+06
-2.07369e+06
-1.81425e+06
-1.70995e+06
-1.62905e+06
-1.55009e+06
-1.4106e+06
-1.28458e+06
-1.27562e+06
-1.22353e+06
-1.11997e+06
-1.14584e+06
-1.13682e+06
-964340
-945210
-870511
-647174
-541310
-497813
-505861
-491960
-493035
-470344
-408261
-360435
-302304
-258155
-227724
-157803
-114486
-88758.8
-57539.3
-32804.1
-9190.1
11446.9
24162.1
34900.5
46474.8
57314.3
63713.2
67561.9
68935.1
69797.7
68723.7
66329.4
63374.1
59621.2
55808.8
51182.9
46966.6
43264
39904.1
36559.6
32637.5
29325.2
27166.9
25978.5
24715.5
23189.6
21720.9
19765
17228.2
14517.4
11969.7
9532.45
7917.17
8496.3
10448
11472.6
9547.43
6983.56
5884.45
5782.57
5587.59
4826.25
4384.35
3485.86
2487.35
2588.77
3275.22
3708.81
3834.48
2983.94
1024.55
149.424
-2.78753e+06
-2.77277e+06
-2.76758e+06
-2.76076e+06
-2.75247e+06
-2.74525e+06
-2.74027e+06
-2.73817e+06
-2.73314e+06
-2.72238e+06
-2.73005e+06
-2.71969e+06
-2.66663e+06
-2.6572e+06
-2.68041e+06
-2.45945e+06
-2.07999e+06
-1.81687e+06
-1.70989e+06
-1.6146e+06
-1.55853e+06
-1.417e+06
-1.28205e+06
-1.2884e+06
-1.22907e+06
-1.11374e+06
-1.14497e+06
-1.12136e+06
-965014
-947057
-901797
-675741
-568898
-535964
-535067
-507923
-497140
-473043
-412341
-367789
-299048
-257194
-227075
-158884
-115977
-88098.9
-54426.2
-30262.8
-8660.78
10732.7
24508.6
35171.2
46786.1
57618
63983.7
67778.3
69261.5
70258.3
69060.9
66477.1
63424.4
59665.6
55860.7
51367.1
47247.7
43470.6
40262.9
36740.9
32566.9
29317.1
27295.9
25953.1
24610.1
23138.5
21698.5
19753.5
17220.1
14470.8
11844.4
9454.73
7938.91
8566.8
10657.2
11792
9671.78
6892.38
5783.68
5714.16
5432.04
4692.83
4306.5
3392.52
2472.37
2619.49
3271.28
3684.79
3831.35
3091.95
900.812
-94.027
-2.78559e+06
-2.76949e+06
-2.76514e+06
-2.75892e+06
-2.75088e+06
-2.74252e+06
-2.73572e+06
-2.73222e+06
-2.72619e+06
-2.71858e+06
-2.73161e+06
-2.7295e+06
-2.66961e+06
-2.67162e+06
-2.6876e+06
-2.4656e+06
-2.09138e+06
-1.86128e+06
-1.73039e+06
-1.60088e+06
-1.56674e+06
-1.43512e+06
-1.28359e+06
-1.28706e+06
-1.24059e+06
-1.11893e+06
-1.12845e+06
-1.09951e+06
-957802
-951994
-919561
-707323
-618858
-596589
-583580
-543987
-522033
-472625
-415271
-389560
-301272
-262585
-225357
-162261
-118637
-87292.4
-51328
-26732.9
-7829.63
10429.9
24929.2
35239
47361.8
58119.9
64400.7
68153.9
69891.9
70729.2
69455.2
66728.6
63508.1
59742.7
55943.9
51541.2
47562.2
43855.9
40570.5
36851.2
32608.3
29525.8
27495.7
25852.5
24431.6
23061.1
21670.9
19753.8
17205.7
14421.9
11739.3
9377.49
7965.68
8701.67
10993.1
12104.6
9666.53
6770.3
5685.44
5566.77
5108.63
4567.65
4230.84
3280.69
2534.76
2666.88
3254.61
3628.32
3806.66
3125.76
724.431
-327.1
-2.78259e+06
-2.76587e+06
-2.7625e+06
-2.75741e+06
-2.74945e+06
-2.74003e+06
-2.73178e+06
-2.72735e+06
-2.71999e+06
-2.71473e+06
-2.7335e+06
-2.73813e+06
-2.6773e+06
-2.69551e+06
-2.6787e+06
-2.46442e+06
-2.09482e+06
-1.92181e+06
-1.75596e+06
-1.59718e+06
-1.57854e+06
-1.46001e+06
-1.28651e+06
-1.28776e+06
-1.27548e+06
-1.13005e+06
-1.107e+06
-1.0858e+06
-954112
-964681
-915154
-739460
-687688
-669641
-631278
-566155
-544953
-466800
-420369
-414557
-309430
-264309
-221687
-165886
-121629
-88227.8
-47111.1
-23126.8
-7219.25
10821.2
24832
35167.4
48574
58971.3
65075.7
68763.2
70730.3
71377.6
69863.2
67286.3
63598.4
59840.3
56078.9
51740.5
48000.1
44182
40715.8
37001.6
32839.4
29889
27571.3
25658.1
24335.9
22969.6
21642.9
19771.6
17209
14396.9
11636.6
9305.04
8015
8815.88
11326.7
12369.1
9605.68
6579.08
5487.3
5413.62
4860.67
4436.55
4081.97
3199.48
2608.57
2689.79
3201.28
3532.63
3799.98
3124.65
536.139
-516.381
-2.77889e+06
-2.7622e+06
-2.75988e+06
-2.75592e+06
-2.74806e+06
-2.73771e+06
-2.72839e+06
-2.72398e+06
-2.71563e+06
-2.7107e+06
-2.73613e+06
-2.74427e+06
-2.68081e+06
-2.71991e+06
-2.66623e+06
-2.44217e+06
-2.09235e+06
-1.95358e+06
-1.7609e+06
-1.61324e+06
-1.58888e+06
-1.47713e+06
-1.28677e+06
-1.28393e+06
-1.30557e+06
-1.14146e+06
-1.08298e+06
-1.07083e+06
-960013
-989390
-911987
-767533
-735603
-734644
-669270
-578066
-560792
-452056
-420461
-423889
-322360
-265004
-219827
-167263
-124093
-89556.4
-44182.4
-19602
-6143
10741.5
24805.1
36458.2
50307.2
60278.2
65893
69549.9
71663
72161.5
70522.7
67745.6
63811.5
60031.1
56301.7
52107.7
48311.3
44397.7
40892.3
37215.3
33236.7
30143.1
27576.4
25530.3
24165.7
22900.9
21599.9
19800.6
17231
14382.4
11563.5
9247.67
8083.51
8985.44
11610.6
12520.1
9444.47
6253.53
5186.91
5123.73
4578.99
4292.94
3839.27
3103.31
2650.82
2732.6
3114.5
3420.68
3754.72
3161.64
438.672
-662.91
-2.77472e+06
-2.75873e+06
-2.75751e+06
-2.75435e+06
-2.74665e+06
-2.73577e+06
-2.72573e+06
-2.72166e+06
-2.71289e+06
-2.70767e+06
-2.73893e+06
-2.74863e+06
-2.68056e+06
-2.73223e+06
-2.65634e+06
-2.39879e+06
-2.06238e+06
-1.96823e+06
-1.77117e+06
-1.63522e+06
-1.59662e+06
-1.4964e+06
-1.29164e+06
-1.28227e+06
-1.31046e+06
-1.14136e+06
-1.06168e+06
-1.03908e+06
-979363
-1.01377e+06
-902356
-783627
-764131
-770029
-684158
-585169
-587007
-447901
-418081
-410251
-334532
-269409
-220940
-167754
-126099
-90469.4
-40493.2
-16722.3
-4814.21
9376.82
26416.7
39041.7
52653.6
62107.4
66822.5
70493.1
72710.9
73106.1
71315.3
68228.8
64050.1
60287.7
56607.8
52541.2
48604.3
44648.3
41197.7
37476.9
33623.5
30404.3
27613.1
25442.3
24026
22823.8
21565.5
19841.9
17280.5
14382.6
11508.9
9214.17
8158.25
9210.3
11792
12520.4
9179.36
5840.03
4748.65
4562.13
4179.6
4120.7
3672.38
2932.44
2598.04
2713.37
3016.42
3325.12
3726.28
3211.21
427.795
-814.278
-2.77044e+06
-2.75579e+06
-2.75545e+06
-2.7529e+06
-2.74519e+06
-2.73416e+06
-2.72413e+06
-2.72046e+06
-2.71112e+06
-2.70569e+06
-2.7412e+06
-2.75281e+06
-2.68014e+06
-2.73656e+06
-2.65217e+06
-2.34277e+06
-2.04818e+06
-1.97339e+06
-1.7882e+06
-1.65235e+06
-1.60531e+06
-1.51187e+06
-1.30158e+06
-1.28177e+06
-1.30212e+06
-1.1424e+06
-1.03734e+06
-993987
-995099
-1.02129e+06
-906310
-789187
-776241
-771761
-676738
-596722
-605620
-456002
-408850
-393653
-340242
-279975
-227531
-172448
-132552
-91513.2
-36059.8
-13736.4
-3713.36
7438.26
28627.1
41699.5
55498.2
64087.8
67880.3
71534.7
73821
74141.9
72207.3
68838.5
64313.3
60583.4
57001.9
52980.6
48979.2
44917.6
41636.6
37722.1
33844
30692.7
27706.7
25353.6
23893.3
22733.6
21509.3
19906.7
17341.5
14422.8
11528.4
9176.09
8243.03
9451.89
11897.5
12356.1
8886.67
5205.08
4236.86
3961.08
3652.31
3885.74
3427.03
2717.52
2485.71
2638.58
2954.97
3257.45
3688
3302.1
481.267
-884.496
-2.7662e+06
-2.75339e+06
-2.754e+06
-2.75154e+06
-2.74354e+06
-2.73265e+06
-2.72322e+06
-2.72033e+06
-2.70988e+06
-2.70454e+06
-2.74249e+06
-2.75493e+06
-2.6828e+06
-2.73807e+06
-2.67572e+06
-2.26653e+06
-2.04521e+06
-1.97514e+06
-1.80179e+06
-1.66881e+06
-1.62107e+06
-1.52453e+06
-1.31467e+06
-1.28548e+06
-1.2944e+06
-1.1339e+06
-1.00064e+06
-937509
-967694
-1.00436e+06
-909889
-791425
-770163
-754322
-661612
-602594
-599161
-456057
-389012
-384575
-341506
-298286
-235635
-177525
-146643
-98897.6
-33890.7
-10593.9
-3318.46
7579.47
29793.6
45049.2
58127.2
65493.3
69322.8
72751.4
75035.9
75217
73257.5
69611.2
64591
60909.6
57406.8
53465.7
49400.3
45313.3
41921.2
37807.5
34160
31022.8
27756.7
25316.5
23853.6
22653.3
21471.9
19981.7
17464.3
14471.2
11520.4
9246.15
8445.98
9621.62
11986.1
12139
8372.09
4508.49
3789.87
3535.46
3157.89
3609.86
3202.9
2374.45
2352.44
2581.64
2940.91
3163.39
3636.78
3403.81
581.305
-890.399
-2.76205e+06
-2.75177e+06
-2.75336e+06
-2.75032e+06
-2.74168e+06
-2.73094e+06
-2.72249e+06
-2.7206e+06
-2.70928e+06
-2.70268e+06
-2.74319e+06
-2.75545e+06
-2.68877e+06
-2.7364e+06
-2.71245e+06
-2.20048e+06
-2.03012e+06
-1.9669e+06
-1.8121e+06
-1.6839e+06
-1.63347e+06
-1.54134e+06
-1.32116e+06
-1.29112e+06
-1.29979e+06
-1.13308e+06
-973752
-900456
-955492
-1.01255e+06
-909832
-796020
-756675
-728354
-646671
-604711
-597228
-431736
-373825
-384608
-348920
-318173
-244794
-179778
-163271
-114780
-34991.5
-7147.29
-1625.13
9590.53
30746
47532.9
60719.9
67727.7
70987.8
74087.4
76360.4
76331.5
74377.5
70248.4
65103.2
61284
57847.4
53994.6
49869.3
45795.6
42054.8
37946.6
34513.7
31236.3
27927.5
25456.8
23776.6
22549.5
21447.7
20069.4
17613.9
14607.5
11566.1
9360.98
8631.03
9778.51
12005.6
11769.8
7782.68
3927.56
3348.92
3051.33
2785.65
3386.41
2941.31
2070.09
2206.15
2537
2937.37
3088.14
3529.05
3532.1
779.997
-835.734
-2.7584e+06
-2.75111e+06
-2.75313e+06
-2.74885e+06
-2.73983e+06
-2.72921e+06
-2.72171e+06
-2.72079e+06
-2.70893e+06
-2.70011e+06
-2.74342e+06
-2.7532e+06
-2.69697e+06
-2.72857e+06
-2.71798e+06
-2.14675e+06
-2.0208e+06
-1.94939e+06
-1.81904e+06
-1.70386e+06
-1.63745e+06
-1.55666e+06
-1.33989e+06
-1.29743e+06
-1.30045e+06
-1.1338e+06
-971268
-903094
-964108
-1.02122e+06
-916776
-797383
-744103
-704565
-644841
-615399
-595088
-415282
-378319
-390120
-352989
-323165
-247501
-178434
-175168
-133581
-37028.5
-5650.05
1649.11
11448.6
30339
49900.9
63317
70274.4
73361
75700.5
77823.2
77494.9
75217.6
71111.3
65767.3
61659.4
58319
54509
50451.5
46158.4
42277.7
38146.4
34714.8
31510.7
28177.4
25580.7
23758.1
22536.2
21374.6
20118.3
17815.6
14764.6
11716
9499.95
8776.4
9898.86
11900.4
11378.7
7054.12
3296.99
2781.71
2525.98
2386.2
3045.47
2671.87
1748.12
2077.99
2491.72
2956.43
2960.31
3383.89
3661.11
1080.71
-697.455
-2.75527e+06
-2.75093e+06
-2.75312e+06
-2.7476e+06
-2.73816e+06
-2.7278e+06
-2.72104e+06
-2.72084e+06
-2.70842e+06
-2.69789e+06
-2.74374e+06
-2.74796e+06
-2.69805e+06
-2.71165e+06
-2.69169e+06
-2.1007e+06
-2.02459e+06
-1.94325e+06
-1.8303e+06
-1.72789e+06
-1.635e+06
-1.56025e+06
-1.37374e+06
-1.29973e+06
-1.29455e+06
-1.1359e+06
-989742
-923910
-974461
-1.01939e+06
-921753
-797588
-739460
-693564
-645436
-626731
-588887
-418823
-392212
-391441
-346193
-322301
-251482
-177356
-178096
-145631
-37726.8
-5115.37
7032.27
12698.7
30503.6
51943.3
65546.2
73419.8
75351.1
77427
79484
78387.1
76159.1
72052.8
66478.3
62326.3
58845.6
54809.4
50938.7
46713.9
42474.9
38347.3
34883.8
31691.7
28516
25751.5
23705.1
22499.2
21276
20079.5
18068.7
15008.3
11868.8
9683.65
8857.6
9977.33
11816.9
10990.5
6167.8
2540.18
2123.99
1967.57
1973.89
2754.75
2387.86
1458.33
1927.46
2472.63
2980.28
2811.43
3209.71
3824.34
1442.03
-472.588
-2.7526e+06
-2.75101e+06
-2.75308e+06
-2.7465e+06
-2.73661e+06
-2.72672e+06
-2.72061e+06
-2.72049e+06
-2.70733e+06
-2.69616e+06
-2.74473e+06
-2.73872e+06
-2.688e+06
-2.68956e+06
-2.64418e+06
-2.08021e+06
-2.02901e+06
-1.93785e+06
-1.84282e+06
-1.74253e+06
-1.63315e+06
-1.53862e+06
-1.40285e+06
-1.31054e+06
-1.27613e+06
-1.1323e+06
-1.006e+06
-947969
-989685
-1.01577e+06
-921131
-792445
-736946
-691048
-641121
-637115
-575581
-426912
-404753
-392888
-341443
-319422
-256174
-180638
-175609
-148515
-37750.5
-2669.62
11938.8
14081.5
31168.9
53366.8
67059.8
75311.6
77329.7
79494.8
80957.7
79480.3
77138
73032.3
67491
62960.9
59137
55147.8
51468.6
47172.3
42801.7
38544
35079.8
31950.4
28763.2
25949.4
23745.4
22427.8
21153.8
19883.3
18351.6
15288.7
12144.3
9885.14
8948.27
10137.4
11817.7
10799.2
5382.17
1795.4
1409.53
1326.76
1548.02
2491.23
2168.18
1236.74
1767.85
2449.71
2966.74
2651.34
3031.24
3980.41
1817.38
-170.285
-2.75056e+06
-2.75111e+06
-2.75275e+06
-2.74558e+06
-2.73528e+06
-2.72563e+06
-2.72017e+06
-2.71999e+06
-2.70562e+06
-2.69462e+06
-2.74706e+06
-2.72605e+06
-2.66804e+06
-2.66417e+06
-2.59493e+06
-2.08508e+06
-2.0067e+06
-1.93484e+06
-1.85342e+06
-1.74931e+06
-1.64414e+06
-1.52627e+06
-1.4074e+06
-1.32615e+06
-1.25978e+06
-1.12802e+06
-1.02357e+06
-974703
-1.00236e+06
-1.01203e+06
-921560
-784511
-732087
-691117
-645014
-647430
-568154
-437961
-415521
-393950
-336773
-316272
-261126
-186428
-173753
-143884
-42502.8
-1737.61
15229.6
15448.3
31275.6
53769.7
68616.1
76891.4
79599.1
81679.8
82415.3
80687.4
78095.4
74020.4
68506
63597.3
59348.2
55479.7
52050.2
47744.4
43068.2
38731.1
35259.7
32223.9
29064.2
26086.6
23769.5
22375.9
20898.8
19462
18683.7
15685.7
12560.2
10111.3
9067.02
10317.6
12222.5
10541.5
4729.87
1189.03
737.994
646.951
1050.74
2186.87
1990.75
1090.14
1635.7
2387.97
2948.04
2471.01
2863.18
4128.81
2229.9
232.223
-2.7489e+06
-2.75132e+06
-2.75245e+06
-2.74452e+06
-2.73387e+06
-2.72474e+06
-2.72e+06
-2.71923e+06
-2.70345e+06
-2.69293e+06
-2.74905e+06
-2.71207e+06
-2.64465e+06
-2.64432e+06
-2.52892e+06
-2.11203e+06
-1.98597e+06
-1.93152e+06
-1.8606e+06
-1.75725e+06
-1.65393e+06
-1.53103e+06
-1.40956e+06
-1.33394e+06
-1.24642e+06
-1.12691e+06
-1.03937e+06
-999220
-1.01341e+06
-1.00951e+06
-920988
-782828
-730342
-689512
-647369
-646470
-565135
-447902
-424253
-400937
-334681
-313677
-263457
-190606
-172132
-135516
-49664.2
-6205.05
16229.2
16496.1
31146
54169.3
69626.7
78514.5
82047.9
83764.2
83694
81825.9
79069.6
74976
69446.3
64229.7
59606.9
55777.5
52704.9
48280.9
43351.4
38939.4
35432
32447.6
29365.7
26236.9
23737.4
22277.7
20468
18825.3
18758.9
16281.6
13032.8
10314.6
9204.42
10602
12785.8
10317.5
4205.43
771.213
238.388
0.841877
507.782
1863.29
1849.83
970.521
1564.5
2291.32
2926.37
2217.89
2703.59
4236.88
2641.09
619.078
-2.74736e+06
-2.75163e+06
-2.75194e+06
-2.74328e+06
-2.73266e+06
-2.7238e+06
-2.7198e+06
-2.71837e+06
-2.70088e+06
-2.69109e+06
-2.74957e+06
-2.69846e+06
-2.62594e+06
-2.64804e+06
-2.46898e+06
-2.14838e+06
-1.98847e+06
-1.92872e+06
-1.86556e+06
-1.77027e+06
-1.66167e+06
-1.54068e+06
-1.41407e+06
-1.33486e+06
-1.24e+06
-1.12744e+06
-1.05206e+06
-1.02068e+06
-1.02364e+06
-1.00276e+06
-911891
-782378
-727633
-680289
-643705
-634110
-564453
-458767
-429522
-406938
-335265
-312758
-264455
-193826
-170731
-130436
-54375.5
-13220.8
15838.8
17752.8
31043
54357.8
70619.3
79968.3
83754.2
85399.4
85271.1
83002.4
79787
75823.6
70628.8
64931.4
59874.1
56188.4
53201.8
48744.1
43674.6
39149
35599.9
32634
29635
26420.6
23743.4
22133.5
19791.6
18033.7
18588.5
16935.2
13480.5
10610
9413.24
11321.8
13241.1
10266.3
3843.34
416.744
-198.24
-567.935
-49.5636
1492.37
1740.82
977.37
1494
2237.76
2798.02
1936.62
2549.23
4255.64
2955.68
1015.62
-2.74585e+06
-2.75181e+06
-2.75137e+06
-2.74189e+06
-2.73139e+06
-2.72316e+06
-2.71976e+06
-2.71745e+06
-2.69794e+06
-2.68903e+06
-2.7487e+06
-2.69252e+06
-2.61146e+06
-2.66918e+06
-2.45422e+06
-2.17691e+06
-1.98063e+06
-1.92719e+06
-1.87501e+06
-1.78411e+06
-1.66593e+06
-1.54823e+06
-1.42519e+06
-1.33578e+06
-1.23646e+06
-1.13073e+06
-1.0639e+06
-1.03808e+06
-1.03222e+06
-994269
-898280
-782339
-722894
-670674
-643291
-626840
-564175
-466551
-433917
-410480
-337271
-309818
-265203
-200592
-172102
-126538
-55114.9
-16722.1
14697.8
19210.4
31591.2
54925.7
71653.2
81330.3
85321.2
86870.9
86616.4
84123.3
80689.7
76653.3
71846.8
65732.5
60169.7
56624.2
53602.4
49222.7
44025.7
39382.5
35738.2
32807.6
29866
26626.4
23747.2
21978.9
18925.1
16759.3
18107.1
17614.8
13848.7
11128.7
10047.5
12494.4
13800.7
10306.7
3602.84
25.953
-660.956
-1151.38
-633.679
1086.71
1582.1
1010.43
1451.88
2161.59
2625.86
1636.37
2416.65
4260.4
3276.19
1431.5
-2.74448e+06
-2.75183e+06
-2.75043e+06
-2.74045e+06
-2.73038e+06
-2.72272e+06
-2.71975e+06
-2.71638e+06
-2.69497e+06
-2.68686e+06
-2.74457e+06
-2.69267e+06
-2.59807e+06
-2.68477e+06
-2.44725e+06
-2.18253e+06
-1.97563e+06
-1.93144e+06
-1.88308e+06
-1.79365e+06
-1.6681e+06
-1.55335e+06
-1.44221e+06
-1.34086e+06
-1.23348e+06
-1.13549e+06
-1.07667e+06
-1.05251e+06
-1.03858e+06
-987344
-885168
-786312
-723564
-669796
-643519
-622171
-562857
-475367
-438796
-410715
-342465
-304584
-265229
-206603
-177431
-123625
-52660.3
-16098.1
11147.7
20236.2
32540.1
56018.1
72892.5
82860.2
86950.5
88314.4
88032.8
85309.3
81440.1
77417.1
72962.2
66558.7
60525.9
56990.5
53962.5
49704.3
44410
39640.6
35908.5
32975.6
30064.5
26821.4
23746.9
21673.5
17927.6
15246
17187.3
18057.7
14234.5
11858.9
11106.1
13998.3
14408.6
10420.1
3472.71
-343.278
-1231.08
-1715.01
-1236
606.816
1463.9
1085.61
1436.28
2094.04
2405.8
1343.09
2243.21
4226.23
3649.06
1862.31
-2.74314e+06
-2.75171e+06
-2.7493e+06
-2.73907e+06
-2.7294e+06
-2.7224e+06
-2.71981e+06
-2.71533e+06
-2.69204e+06
-2.68455e+06
-2.73707e+06
-2.68426e+06
-2.58666e+06
-2.69766e+06
-2.45612e+06
-2.14951e+06
-1.97327e+06
-1.93767e+06
-1.89121e+06
-1.8008e+06
-1.66727e+06
-1.55999e+06
-1.45986e+06
-1.34923e+06
-1.23523e+06
-1.1402e+06
-1.08948e+06
-1.06475e+06
-1.04439e+06
-983987
-874072
-794862
-728714
-672694
-641790
-620235
-563130
-482750
-444596
-410272
-348848
-300059
-263702
-211282
-182388
-120385
-50472.4
-18143.3
8044
20379.2
33108.4
57102.4
74280.3
84495.2
88685.1
89686
89263.3
86531
82374.7
78381.4
73862.8
67319.2
61014.8
57215.2
54252.5
50163.7
44826.3
39938.6
36105.8
33044.2
30265.2
27039.4
23729.4
21240.1
16723.4
13499
16103.4
18356.9
14732.6
12900.2
12549.7
15490
14827.1
10562.8
3559.93
-614.671
-1810.72
-2323.6
-1893.64
167.772
1363.66
1194.32
1377.47
1987.08
2161.36
965.051
2052.93
4260.05
3962.55
2203.95
-2.74193e+06
-2.75152e+06
-2.74806e+06
-2.73769e+06
-2.72852e+06
-2.72224e+06
-2.71983e+06
-2.71436e+06
-2.68928e+06
-2.68237e+06
-2.72664e+06
-2.66967e+06
-2.58272e+06
-2.69507e+06
-2.48642e+06
-2.11435e+06
-1.96888e+06
-1.94611e+06
-1.90103e+06
-1.80443e+06
-1.66598e+06
-1.56794e+06
-1.47842e+06
-1.36031e+06
-1.2384e+06
-1.14771e+06
-1.10065e+06
-1.0746e+06
-1.05349e+06
-983943
-862771
-806642
-736553
-675887
-641158
-620391
-565224
-487625
-451161
-412631
-351794
-297005
-260598
-215396
-186164
-118576
-48247.4
-20964.4
5011.9
19962.2
33940
58017.1
75839.5
86104.2
90494.2
91290.3
90541.7
87516.1
83299.6
79315.4
74737.3
68037.3
61427.4
57447.2
54583.3
50614.2
45171.2
40239.7
36268.2
33208.9
30395.5
27276.6
23701.6
20594
15653.1
11798.5
14788.7
18521.4
15413.6
14082.1
14083.5
16651.9
15128.1
10737.3
3722.43
-774.453
-2340.79
-2948.76
-2493.27
-243.869
1273.88
1255.47
1401.67
1835.5
1796.69
593.677
1825.56
4287.95
4282.46
2516.9
-2.74093e+06
-2.75125e+06
-2.74673e+06
-2.73648e+06
-2.72785e+06
-2.72219e+06
-2.71987e+06
-2.71333e+06
-2.68677e+06
-2.68039e+06
-2.71471e+06
-2.65731e+06
-2.59334e+06
-2.68073e+06
-2.52311e+06
-2.09974e+06
-1.96209e+06
-1.95717e+06
-1.91204e+06
-1.80807e+06
-1.66731e+06
-1.57765e+06
-1.49863e+06
-1.37522e+06
-1.24071e+06
-1.15769e+06
-1.11288e+06
-1.07919e+06
-1.06268e+06
-988506
-856305
-817645
-744704
-677297
-641908
-620426
-568312
-493899
-457085
-418389
-352185
-292081
-256245
-218897
-188697
-117752
-46732.7
-21420.8
2839.48
19410.4
34853.6
59017.3
77307.7
87755.6
92390.3
93110.5
91595.1
88440.8
84195.1
80159.1
75587.6
68754.4
61827.3
57657.8
54872.8
50944.7
45552.1
40576.7
36465.7
33286.5
30550.1
27511.4
23651.9
19892.2
14453.9
10241.8
13507.1
18554.5
16193
15330.5
15434.1
17431.6
15331.6
10926.9
3978.7
-874.654
-2777.8
-3531.84
-3022.39
-639.499
1125.07
1313.6
1401.67
1606.65
1398.11
300.638
1598.73
4304.14
4559.36
2726.94
-2.74004e+06
-2.7508e+06
-2.74545e+06
-2.73548e+06
-2.72725e+06
-2.7221e+06
-2.72003e+06
-2.71234e+06
-2.68464e+06
-2.67866e+06
-2.70387e+06
-2.65109e+06
-2.62312e+06
-2.68591e+06
-2.5385e+06
-2.08658e+06
-1.95472e+06
-1.96676e+06
-1.92374e+06
-1.81222e+06
-1.66937e+06
-1.59148e+06
-1.52134e+06
-1.39185e+06
-1.24488e+06
-1.16666e+06
-1.12455e+06
-1.08191e+06
-1.06741e+06
-992194
-856323
-826340
-750320
-676957
-642188
-619783
-572370
-501656
-462072
-426310
-354014
-285471
-251123
-222792
-190509
-117117
-45402.2
-20126.7
1907.55
20220
35989.8
59652.9
78073.3
89525.4
94338
94691.6
92717.4
89357
85034.6
80965.8
76351.1
69400.3
62207.5
57855.6
55066.2
51234.3
45965.5
40917.3
36639.1
33361.9
30687
27771.2
23664.3
19308.1
13221.5
8712.62
12062.8
18517.8
17056.9
16715.5
16693.5
17901.9
15494.5
11042.6
4263.88
-822.044
-3135.03
-4030.46
-3490.54
-997.825
955.028
1349.05
1363.77
1373.26
950.496
69.0105
1452.57
4313.21
4780.44
2900.41
-2.73924e+06
-2.75016e+06
-2.74425e+06
-2.73463e+06
-2.72691e+06
-2.72193e+06
-2.71994e+06
-2.71153e+06
-2.68297e+06
-2.67709e+06
-2.69702e+06
-2.65318e+06
-2.654e+06
-2.70582e+06
-2.53701e+06
-2.07125e+06
-1.94932e+06
-1.97457e+06
-1.93343e+06
-1.81791e+06
-1.67215e+06
-1.6061e+06
-1.54789e+06
-1.40754e+06
-1.24807e+06
-1.17973e+06
-1.13535e+06
-1.0807e+06
-1.06812e+06
-996955
-859293
-830348
-753704
-675369
-642196
-618453
-575694
-509069
-468264
-432397
-356914
-279443
-245929
-225548
-191059
-116800
-45564.3
-18006.3
2122.87
19870
38046.6
61254.3
78553.4
90718.3
96135.2
96085.5
93779.1
90172.7
85796.8
81667.6
77053.9
69981.9
62591.1
57976.5
55191.9
51494.7
46397.4
41278
36807.7
33411.3
30811
28027.1
23704.6
19299.4
12095.5
7671.1
10840.2
18394
18034.7
17792.4
17635
18351.8
15513.2
11134.7
4643.86
-725.724
-3377.42
-4450.92
-3898.94
-1335.22
769.176
1353.89
1316.63
1141.59
597.511
-24.0013
1407.17
4402.04
4998.12
3034.28
-2.73864e+06
-2.74939e+06
-2.74311e+06
-2.73407e+06
-2.72665e+06
-2.72181e+06
-2.71968e+06
-2.71075e+06
-2.68191e+06
-2.67565e+06
-2.69448e+06
-2.66328e+06
-2.6755e+06
-2.72168e+06
-2.52911e+06
-2.05622e+06
-1.94702e+06
-1.98103e+06
-1.9417e+06
-1.82379e+06
-1.67677e+06
-1.62145e+06
-1.57467e+06
-1.42219e+06
-1.25263e+06
-1.194e+06
-1.14659e+06
-1.0742e+06
-1.06415e+06
-1.0063e+06
-870167
-831496
-756269
-674238
-641075
-615478
-577732
-518078
-475273
-435059
-358340
-274622
-241437
-225072
-191050
-118800
-46367.4
-16650.6
3249.99
19186.1
38664.8
62399
79577.3
91832.4
97702
97261
94684.3
90859.4
86461.2
82345.2
77672.3
70498.6
62915.3
58032.2
55285.3
51751.1
46813.5
41638.1
36956.4
33430.4
30907.9
28296.9
23855.6
19549.6
11257.4
6817.75
9811.81
18209.9
19099.6
18629.1
18217.6
18322
15417.7
11263.6
5062.16
-560.5
-3535.21
-4758.7
-4249.48
-1589.06
626.656
1355.75
1246.82
913.2
306.509
-59.0347
1465.6
4550.87
5244.13
3103.52
-2.73807e+06
-2.74845e+06
-2.74215e+06
-2.73359e+06
-2.72656e+06
-2.72181e+06
-2.71934e+06
-2.70984e+06
-2.68108e+06
-2.67472e+06
-2.69303e+06
-2.67407e+06
-2.6947e+06
-2.72306e+06
-2.50975e+06
-2.04593e+06
-1.94756e+06
-1.98539e+06
-1.94747e+06
-1.83105e+06
-1.68456e+06
-1.63711e+06
-1.59588e+06
-1.43631e+06
-1.25736e+06
-1.20716e+06
-1.15644e+06
-1.06463e+06
-1.05554e+06
-1.02595e+06
-882331
-824969
-758629
-674285
-637576
-612517
-580162
-529285
-483622
-438027
-359050
-269435
-236666
-223838
-190889
-120167
-48210.2
-15659.3
4406.38
18714
39244.9
62721.3
80181.8
92728.2
98946.8
98260.6
95441.4
91439.4
87097.9
82989.8
78215.6
70956.4
63238.1
58133
55430.2
51993.2
47223.3
42017
37113.7
33453.7
30992.1
28573
24216
20045.7
10668.9
5873.38
9002.11
18004.4
20119.3
19350.4
18668.8
17801.6
14958.9
11316.5
5337.43
-301.489
-3564.67
-5001.22
-4462.88
-1776.92
496.679
1321.21
1137.39
689.377
119.403
16.9875
1572.39
4774.62
5525.03
3136.11
-2.73759e+06
-2.74745e+06
-2.74126e+06
-2.7333e+06
-2.72648e+06
-2.72171e+06
-2.71903e+06
-2.70909e+06
-2.68039e+06
-2.6746e+06
-2.69255e+06
-2.6811e+06
-2.70436e+06
-2.7177e+06
-2.48903e+06
-2.04185e+06
-1.94855e+06
-1.9866e+06
-1.95119e+06
-1.83874e+06
-1.69488e+06
-1.65344e+06
-1.6098e+06
-1.44614e+06
-1.26573e+06
-1.22131e+06
-1.16125e+06
-1.05169e+06
-1.04524e+06
-1.04434e+06
-893652
-812147
-757508
-672752
-632352
-611490
-585931
-540575
-494040
-443459
-359147
-263325
-231776
-221465
-189163
-122665
-50915.3
-14412.2
4375.29
18996.1
40079
62494.4
80145.8
93104.1
99704.7
99021.5
96040.7
91994.5
87856.1
83680.4
78708.6
71532.9
63618.7
58276.8
55599.8
52258.3
47695.5
42408.4
37346
33439.2
31066.9
28930.3
24830.3
20901.9
10648.2
5254.15
8387.13
17654.8
21125
20069.7
18904.7
16983.3
14285.4
11348.1
5749.1
-73.9917
-3499.5
-5151.21
-4618.15
-1862.94
359.509
1247.83
1065.82
533.431
64.3971
180.175
1765.49
4993.04
5811.07
3138.27
-2.73716e+06
-2.74639e+06
-2.74053e+06
-2.7331e+06
-2.72646e+06
-2.72154e+06
-2.71856e+06
-2.70836e+06
-2.68007e+06
-2.67514e+06
-2.6937e+06
-2.68545e+06
-2.70133e+06
-2.70583e+06
-2.46678e+06
-2.03916e+06
-1.9485e+06
-1.98181e+06
-1.95183e+06
-1.8478e+06
-1.70902e+06
-1.66571e+06
-1.62297e+06
-1.45253e+06
-1.27502e+06
-1.23282e+06
-1.16379e+06
-1.03579e+06
-1.02886e+06
-1.04161e+06
-892413
-794640
-759381
-671786
-626253
-610829
-594196
-551491
-504993
-450222
-358874
-257753
-226580
-218345
-186101
-125593
-55731.1
-14315.7
3753.87
19334.4
41229
62519.9
79081.5
92745.8
100015
99412.4
96521
92777.1
88780.9
84417.4
79352.3
72011.8
64010
58396
55756
52569.1
48153.9
42875.4
37607.5
33394.5
31121.9
29337.8
25724.5
21814.1
11281.8
5154.16
8092.48
17208.7
21967.7
20816.7
19160.9
16092.9
13622.1
11422.7
6279.27
245.294
-3401.35
-5186.39
-4716.17
-1857.08
225.836
1124.36
986.431
493.297
224.29
352.258
2020.59
5244.24
6126.2
3099.3
-2.73681e+06
-2.74529e+06
-2.73985e+06
-2.73301e+06
-2.72649e+06
-2.72138e+06
-2.71804e+06
-2.70744e+06
-2.67989e+06
-2.67582e+06
-2.69615e+06
-2.68796e+06
-2.69254e+06
-2.69102e+06
-2.44438e+06
-2.03695e+06
-1.94832e+06
-1.97136e+06
-1.94853e+06
-1.85843e+06
-1.72588e+06
-1.67568e+06
-1.63476e+06
-1.46188e+06
-1.28092e+06
-1.23957e+06
-1.16316e+06
-1.01662e+06
-1.00522e+06
-1.02572e+06
-875976
-783573
-758949
-671022
-622709
-610283
-602755
-563530
-514989
-457815
-359433
-254080
-221479
-213477
-183208
-130823
-60944.3
-16458.9
2497
20644.2
42279.8
61878.3
78259.2
92103.4
100072
99212.4
96994.4
93764.7
89736.6
85139
79869.2
72772
64393.5
58474.9
55896.6
52967.8
48685.9
43243.7
37930.9
33239.2
31143.3
29852.6
26805.3
22987.4
12163.7
5669.75
8157.49
16831
22456.3
21460.4
19276.1
15495.1
12951.6
11470.6
6982.02
725.752
-3364.76
-5176.82
-4560.37
-1893.65
160.738
989.174
899.46
665.658
591.476
531.208
2292.09
5511.99
6537.4
3064.19
-2.73656e+06
-2.74425e+06
-2.73931e+06
-2.73286e+06
-2.72656e+06
-2.72123e+06
-2.71744e+06
-2.70646e+06
-2.67983e+06
-2.67798e+06
-2.69838e+06
-2.68951e+06
-2.68139e+06