/*--------------------------------*- C++ -*----------------------------------*\
| =========                 |                                                 |
| \\      /  F ield         | foam-extend: Open Source CFD                    |
|  \\    /   O peration     | Version:     5.0                                |
|   \\  /    A nd           | Web:         http://www.foam-extend.org         |
|    \\/     M anipulation  |                                                 |
\*---------------------------------------------------------------------------*/
FoamFile
{
    version     2.0;
    format      ascii;
    class       volScalarField;
    location    "0.09";
    object      pd;
}
// * * * * * * * * * * * * * * * * * * * * * * * * * * * * * * * * * * * * * //

dimensions      [1 -1 -2 0 0 0 0];

internalField   nonuniform List<scalar> 
4000
(
-2.78776e+06
-2.77884e+06
-2.77245e+06
-2.76552e+06
-2.75948e+06
-2.75962e+06
-2.76234e+06
-2.76374e+06
-2.76217e+06
-2.74876e+06
-2.7349e+06
-2.71441e+06
-2.68065e+06
-2.64342e+06
-2.58211e+06
-2.37905e+06
-2.05787e+06
-1.82014e+06
-1.71093e+06
-1.62001e+06
-1.53457e+06
-1.40776e+06
-1.26966e+06
-1.19756e+06
-1.15877e+06
-1.12193e+06
-1.19702e+06
-1.15865e+06
-983444
-895693
-769830
-594422
-520641
-502592
-521747
-528702
-513207
-500119
-433155
-357938
-312127
-281265
-235155
-164675
-116673
-91926.6
-64637.7
-39600.8
-11072.2
11891.3
24087.6
34607.1
46357.9
57545.2
64007.6
67815.4
69304.5
69658.1
68796.8
66840.6
63990.7
60108.4
56179.8
51248.5
47282.9
43319.9
39575.8
36690.2
32817.5
29639.4
27541.6
26163.7
24876
23440.8
21970.8
20004.4
17431.2
14769.8
12247.6
9737.89
8124.45
8808.32
10550.7
11047
9345.06
7086.62
5600.31
5551.09
5615.74
4694.07
4127.31
3482.37
2546.05
2433.95
3211.96
3654.62
3722.32
2832.09
1297.6
584.432
-2.78727e+06
-2.77827e+06
-2.77229e+06
-2.76552e+06
-2.75907e+06
-2.75814e+06
-2.76058e+06
-2.76241e+06
-2.76184e+06
-2.74739e+06
-2.73172e+06
-2.70513e+06
-2.67547e+06
-2.63809e+06
-2.5853e+06
-2.38555e+06
-2.06307e+06
-1.82538e+06
-1.71632e+06
-1.62271e+06
-1.53149e+06
-1.40797e+06
-1.27711e+06
-1.19718e+06
-1.16335e+06
-1.13564e+06
-1.20864e+06
-1.14883e+06
-963039
-898535
-754832
-586293
-506575
-484037
-502018
-503952
-490890
-470803
-411181
-349157
-303022
-274712
-230795
-161160
-115353
-90787.4
-63513.2
-38803.5
-10293.2
11903.2
23879.6
34293.5
46139.4
57138.3
63807.9
67564.4
68770
69309.6
68504.1
66495.2
63873.6
59737.5
55993.4
51004.4
47100.4
43157.5
39420.6
36624.1
32732.4
29576.9
27490.5
26135.5
24824.4
23363.1
21883.1
19900.1
17350.4
14714.7
12233.4
9753.6
8047.6
8699.64
10410.2
10956.9
9278.5
7107.24
5734.28
5686.01
5689.62
4745.16
4244.79
3577.93
2602.88
2489.93
3231.5
3671.49
3739.66
2870.83
1295.6
528.262
-2.78742e+06
-2.77783e+06
-2.77213e+06
-2.76528e+06
-2.75844e+06
-2.75577e+06
-2.75659e+06
-2.75903e+06
-2.75685e+06
-2.7408e+06
-2.72927e+06
-2.70046e+06
-2.66984e+06
-2.63575e+06
-2.60527e+06
-2.41287e+06
-2.07081e+06
-1.82575e+06
-1.71386e+06
-1.62265e+06
-1.53717e+06
-1.4137e+06
-1.28413e+06
-1.20895e+06
-1.17848e+06
-1.12813e+06
-1.18715e+06
-1.16071e+06
-972969
-926918
-777024
-587838
-501752
-471531
-487266
-491692
-487178
-463955
-403158
-346874
-299418
-272793
-229740
-159311
-115058
-89597.4
-61816.2
-37820
-9618.67
12127.1
23997.5
34316.7
46124.2
57040
63710.1
67564
68501.7
69186
68379.5
66265.1
63550.1
59620.7
55991.6
50824.4
46982.9
43010.7
39435.3
36520.3
32601.3
29588.6
27347.3
26035.6
24793.1
23323.2
21807.4
19849.1
17295.6
14614.5
12209.2
9692.77
7923.37
8582.73
10373.9
11018.5
9316.81
7083.11
5838.25
5771.21
5724.04
4832.42
4316.31
3636.04
2590.8
2535.91
3249.63
3696.42
3756.37
2937.99
1230.04
422.472
-2.78796e+06
-2.77697e+06
-2.77121e+06
-2.76434e+06
-2.75673e+06
-2.75209e+06
-2.7509e+06
-2.75231e+06
-2.74941e+06
-2.73343e+06
-2.72849e+06
-2.70437e+06
-2.6655e+06
-2.62868e+06
-2.62752e+06
-2.44513e+06
-2.06977e+06
-1.8196e+06
-1.71736e+06
-1.63101e+06
-1.54055e+06
-1.41464e+06
-1.28995e+06
-1.23816e+06
-1.20234e+06
-1.12429e+06
-1.15384e+06
-1.15243e+06
-971134
-947945
-821299
-607919
-520771
-482561
-493465
-492513
-493427
-467805
-405226
-353310
-301399
-268064
-229871
-158462
-114944
-88855.1
-59941.8
-35344.1
-9419.13
11964.6
24053.4
34563.3
46255.8
57120.1
63625.9
67498.3
68670
69404.3
68479.1
66222.4
63391.7
59601.6
55840.2
50964.5
47036.5
42981
39574.1
36472.1
32615.5
29489.9
27200.3
25956.1
24764.9
23243.5
21760
19792.4
17266
14554
12096.1
9640.63
7867.72
8509.78
10362.3
11189.8
9386.61
7059.33
5888.1
5796.34
5674.6
4862.94
4382.02
3563.95
2537.38
2562.69
3263.3
3703.72
3808.76
2959.51
1149.74
341.523
-2.78827e+06
-2.77525e+06
-2.76964e+06
-2.76272e+06
-2.75456e+06
-2.74833e+06
-2.74524e+06
-2.74484e+06
-2.7409e+06
-2.7274e+06
-2.72841e+06
-2.7108e+06
-2.66561e+06
-2.63685e+06
-2.65574e+06
-2.46276e+06
-2.07369e+06
-1.81425e+06
-1.70995e+06
-1.62905e+06
-1.55009e+06
-1.4106e+06
-1.28458e+06
-1.27562e+06
-1.22353e+06
-1.11997e+06
-1.14584e+06
-1.13681e+06
-964339
-945210
-870510
-647173
-541310
-497812
-505860
-491960
-493035
-470344
-408260
-360435
-302303
-258155
-227724
-157803
-114485
-88758.3
-57538.9
-32803.6
-9189.61
11447.4
24162.6
34901
46475.3
57314.8
63713.7
67562.4
68935.6
69798.2
68724.2
66329.9
63374.6
59621.7
55809.3
51183.4
46967.1
43264.5
39904.6
36560
32637.9
29325.7
27167.4
25978.9
24716
23190.1
21721.4
19765.5
17228.7
14517.8
11970.2
9532.94
7917.67
8496.8
10448.5
11473.1
9547.92
6984.05
5884.94
5783.06
5588.08
4826.74
4384.84
3486.35
2487.84
2589.26
3275.71
3709.3
3834.97
2984.43
1025.04
149.914
-2.78753e+06
-2.77277e+06
-2.76758e+06
-2.76076e+06
-2.75247e+06
-2.74525e+06
-2.74027e+06
-2.73817e+06
-2.73314e+06
-2.72238e+06
-2.73005e+06
-2.71969e+06
-2.66663e+06
-2.6572e+06
-2.68041e+06
-2.45945e+06
-2.07999e+06
-1.81687e+06
-1.70989e+06
-1.6146e+06
-1.55853e+06
-1.417e+06
-1.28205e+06
-1.2884e+06
-1.22907e+06
-1.11374e+06
-1.14497e+06
-1.12136e+06
-965013
-947056
-901797
-675741
-568898
-535963
-535066
-507923
-497140
-473043
-412341
-367789
-299047
-257193
-227074
-158884
-115977
-88098.4
-54425.7
-30262.3
-8660.29
10733.2
24509.1
35171.7
46786.6
57618.5
63984.2
67778.8
69262
70258.8
69061.4
66477.6
63424.9
59666.1
55861.2
51367.6
47248.2
43471.1
40263.4
36741.4
32567.4
29317.6
27296.4
25953.6
24610.6
23139
21699
19754
17220.6
14471.3
11844.9
9455.22
7939.4
8567.29
10657.7
11792.5
9672.27
6892.87
5784.17
5714.65
5432.53
4693.32
4306.99
3393.01
2472.86
2619.98
3271.77
3685.28
3831.84
3092.44
901.302
-93.5365
-2.78559e+06
-2.76949e+06
-2.76514e+06
-2.75892e+06
-2.75088e+06
-2.74252e+06
-2.73572e+06
-2.73222e+06
-2.72619e+06
-2.71858e+06
-2.73161e+06
-2.7295e+06
-2.66961e+06
-2.67162e+06
-2.6876e+06
-2.4656e+06
-2.09138e+06
-1.86128e+06
-1.73039e+06
-1.60088e+06
-1.56674e+06
-1.43512e+06
-1.28359e+06
-1.28706e+06
-1.24059e+06
-1.11893e+06
-1.12845e+06
-1.09951e+06
-957802
-951994
-919561
-707323
-618857
-596589
-583579
-543987
-522033
-472625
-415271
-389560
-301272
-262585
-225357
-162261
-118636
-87291.9
-51327.5
-26732.4
-7829.14
10430.4
24929.7
35239.5
47362.3
58120.4
64401.2
68154.4
69892.4
70729.7
69455.7
66729.1
63508.6
59743.1
55944.4
51541.7
47562.7
43856.4
40571
36851.7
32608.7
29526.3
27496.2
25853
24432.1
23061.6
21671.4
19754.3
17206.2
14422.4
11739.8
9377.98
7966.17
8702.16
10993.6
12105.1
9667.02
6770.79
5685.93
5567.26
5109.13
4568.14
4231.33
3281.18
2535.25
2667.37
3255.1
3628.81
3807.15
3126.25
724.921
-326.61
-2.78259e+06
-2.76587e+06
-2.7625e+06
-2.75741e+06
-2.74944e+06
-2.74003e+06
-2.73178e+06
-2.72735e+06
-2.71999e+06
-2.71473e+06
-2.7335e+06
-2.73813e+06
-2.6773e+06
-2.69551e+06
-2.6787e+06
-2.46442e+06
-2.09482e+06
-1.92181e+06
-1.75596e+06
-1.59718e+06
-1.57854e+06
-1.46001e+06
-1.28651e+06
-1.28776e+06
-1.27548e+06
-1.13005e+06
-1.107e+06
-1.0858e+06
-954112
-964681
-915154
-739460
-687688
-669641
-631277
-566155
-544952
-466800
-420369
-414557
-309430
-264309
-221686
-165886
-121629
-88227.4
-47110.6
-23126.3
-7218.75
10821.7
24832.5
35167.8
48574.5
58971.8
65076.1
68763.6
70730.8
71378
69863.6
67286.8
63598.8
59840.8
56079.4
51741
48000.6
44182.5
40716.2
37002.1
32839.9
29889.5
27571.8
25658.6
24336.4
22970.1
21643.4
19772.1
17209.5
14397.4
11637.1
9305.53
8015.49
8816.37
11327.2
12369.5
9606.17
6579.57
5487.79
5414.11
4861.16
4437.04
4082.46
3199.97
2609.06
2690.29
3201.77
3533.12
3800.47
3125.14
536.629
-515.89
-2.77888e+06
-2.7622e+06
-2.75988e+06
-2.75592e+06
-2.74806e+06
-2.73771e+06
-2.72839e+06
-2.72398e+06
-2.71563e+06
-2.7107e+06
-2.73613e+06
-2.74427e+06
-2.68081e+06
-2.7199e+06
-2.66623e+06
-2.44217e+06
-2.09235e+06
-1.95358e+06
-1.7609e+06
-1.61324e+06
-1.58888e+06
-1.47713e+06
-1.28677e+06
-1.28393e+06
-1.30557e+06
-1.14146e+06
-1.08298e+06
-1.07083e+06
-960013
-989390
-911987
-767532
-735602
-734643
-669269
-578065
-560791
-452056
-420461
-423888
-322359
-265004
-219827
-167263
-124093
-89555.9
-44181.9
-19601.5
-6142.51
10742
24805.6
36458.7
50307.7
60278.7
65893.5
69550.4
71663.5
72162
70523.2
67746
63811.9
60031.5
56302.2
52108.2
48311.7
44398.2
40892.8
37215.8
33237.2
30143.6
27576.9
25530.8
24166.2
22901.4
21600.4
19801
17231.5
14382.9
11564
9248.16
8084
8985.94
11611.1
12520.6
9444.96
6254.02
5187.4
5124.22
4579.48
4293.43
3839.76
3103.8
2651.31
2733.09
3114.99
3421.17
3755.21
3162.13
439.162
-662.42
-2.77472e+06
-2.75873e+06
-2.75751e+06
-2.75435e+06
-2.74665e+06
-2.73577e+06
-2.72573e+06
-2.72166e+06
-2.71289e+06
-2.70767e+06
-2.73893e+06
-2.74863e+06
-2.68055e+06
-2.73223e+06
-2.65634e+06
-2.39879e+06
-2.06238e+06
-1.96823e+06
-1.77117e+06
-1.63522e+06
-1.59662e+06
-1.4964e+06
-1.29164e+06
-1.28227e+06
-1.31046e+06
-1.14136e+06
-1.06168e+06
-1.03908e+06
-979363
-1.01377e+06
-902355
-783626
-764130
-770028
-684158
-585168
-587006
-447900
-418080
-410250
-334531
-269409
-220939
-167754
-126098
-90468.9
-40492.7
-16721.9
-4813.72
9377.31
26417.2
39042.2
52654.1
62107.9
66822.9
70493.6
72711.4
73106.6
71315.8
68229.3
64050.6
60288.2
56608.3
52541.7
48604.8
44648.8
41198.2
37477.4
33624
30404.8
27613.6
25442.8
24026.5
22824.3
21566
19842.4
17280.9
14383.1
11509.4
9214.66
8158.74
9210.79
11792.5
12520.9
9179.86
5840.52
4749.14
4562.62
4180.09
4121.19
3672.87
2932.93
2598.53
2713.86
3016.91
3325.61
3726.77
3211.7
428.285
-813.788
-2.77044e+06
-2.75579e+06
-2.75545e+06
-2.7529e+06
-2.74519e+06
-2.73416e+06
-2.72413e+06
-2.72046e+06
-2.71112e+06
-2.70569e+06
-2.7412e+06
-2.75281e+06
-2.68014e+06
-2.73656e+06
-2.65216e+06
-2.34277e+06
-2.04817e+06
-1.97339e+06
-1.78819e+06
-1.65235e+06
-1.60531e+06
-1.51187e+06
-1.30158e+06
-1.28177e+06
-1.30212e+06
-1.1424e+06
-1.03733e+06
-993986
-995099
-1.02129e+06
-906309
-789186
-776240
-771760
-676738
-596722
-605619
-456002
-408850
-393653
-340241
-279974
-227531
-172447
-132552
-91512.7
-36059.3
-13735.9
-3712.87
7438.75
28627.6
41700
55498.7
64088.3
67880.8
71535.2
73821.5
74142.4
72207.8
68839
64313.7
60583.9
57002.4
52981.1
48979.7
44918.1
41637.1
37722.6
33844.5
30693.2
27707.2
25354.1
23893.8
22734.1
21509.8
19907.2
17341.9
14423.3
11528.9
9176.58
8243.52
9452.38
11898
12356.6
8887.16
5205.57
4237.35
3961.58
3652.8
3886.23
3427.52
2718.01
2486.2
2639.07
2955.46
3257.94
3688.49
3302.59
481.757
-884.006
-2.7662e+06
-2.75339e+06
-2.754e+06
-2.75153e+06
-2.74354e+06
-2.73265e+06
-2.72322e+06
-2.72033e+06
-2.70988e+06
-2.70454e+06
-2.74249e+06
-2.75493e+06
-2.6828e+06
-2.73807e+06
-2.67572e+06
-2.26653e+06
-2.04521e+06
-1.97514e+06
-1.80179e+06
-1.66881e+06
-1.62107e+06
-1.52453e+06
-1.31467e+06
-1.28548e+06
-1.2944e+06
-1.1339e+06
-1.00064e+06
-937508
-967693
-1.00436e+06
-909889
-791424
-770163
-754321
-661611
-602593
-599160
-456056
-389011
-384574
-341506
-298286
-235635
-177524
-146642
-98897.1
-33890.2
-10593.4
-3317.97
7579.96
29794.1
45049.7
58127.7
65493.8
69323.3
72751.9
75036.4
75217.5
73258
69611.7
64591.4
60910.1
57407.3
53466.1
49400.8
45313.8
41921.7
37808
34160.5
31023.3
27757.2
25317
23854.1
22653.8
21472.4
19982.2
17464.8
14471.7
11520.9
9246.64
8446.47
9622.11
11986.5
12139.5
8372.58
4508.98
3790.36
3535.95
3158.38
3610.35
3203.39
2374.94
2352.93
2582.13
2941.41
3163.88
3637.27
3404.3
581.795
-889.909
-2.76205e+06
-2.75177e+06
-2.75336e+06
-2.75032e+06
-2.74168e+06
-2.73094e+06
-2.72249e+06
-2.7206e+06
-2.70928e+06
-2.70268e+06
-2.74319e+06
-2.75544e+06
-2.68877e+06
-2.7364e+06
-2.71245e+06
-2.20048e+06
-2.03012e+06
-1.9669e+06
-1.8121e+06
-1.6839e+06
-1.63347e+06
-1.54134e+06
-1.32116e+06
-1.29112e+06
-1.29979e+06
-1.13308e+06
-973751
-900455
-955492
-1.01255e+06
-909832
-796020
-756675
-728353
-646670
-604711
-597227
-431736
-373825
-384608
-348920
-318172
-244794
-179778
-163270
-114780
-34991
-7146.8
-1624.64
9591.02
30746.5
47533.4
60720.4
67728.2
70988.3
74087.9
76360.9
76332
74378
70248.9
65103.7
61284.5
57847.9
53995.1
49869.8
45796.1
42055.2
37947.1
34514.2
31236.8
27928
25457.3
23777.1
22550
21448.1
20069.9
17614.4
14608
11566.6
9361.47
8631.52
9779
12006.1
11770.3
7783.17
3928.05
3349.41
3051.82
2786.14
3386.9
2941.8
2070.58
2206.64
2537.49
2937.87
3088.63
3529.54
3532.59
780.488
-835.243
-2.7584e+06
-2.7511e+06
-2.75313e+06
-2.74885e+06
-2.73983e+06
-2.72921e+06
-2.72171e+06
-2.72079e+06
-2.70893e+06
-2.70011e+06
-2.74341e+06
-2.7532e+06
-2.69697e+06
-2.72857e+06
-2.71798e+06
-2.14675e+06
-2.02079e+06
-1.94939e+06
-1.81904e+06
-1.70386e+06
-1.63745e+06
-1.55666e+06
-1.33989e+06
-1.29743e+06
-1.30045e+06
-1.1338e+06
-971267
-903094
-964107
-1.02122e+06
-916775
-797382
-744102
-704565
-644841
-615399
-595087
-415282
-378318
-390119
-352989
-323164
-247500
-178434
-175167
-133580
-37028.1
-5649.56
1649.6
11449.1
30339.5
49901.4
63317.5
70274.9
73361.5
75701
77823.7
77495.4
75218.1
71111.8
65767.8
61659.9
58319.5
54509.5
50452
46158.9
42278.2
38146.9
34715.3
31511.1
28177.9
25581.2
23758.6
22536.7
21375.1
20118.8
17816.1
14765.1
11716.5
9500.44
8776.9
9899.35
11900.9
11379.2
7054.61
3297.48
2782.2
2526.47
2386.69
3045.97
2672.36
1748.62
2078.48
2492.21
2956.92
2960.8
3384.38
3661.6
1081.2
-696.964
-2.75527e+06
-2.75093e+06
-2.75312e+06
-2.7476e+06
-2.73816e+06
-2.7278e+06
-2.72104e+06
-2.72084e+06
-2.70842e+06
-2.69789e+06
-2.74374e+06
-2.74795e+06
-2.69805e+06
-2.71165e+06
-2.69169e+06
-2.1007e+06
-2.02459e+06
-1.94325e+06
-1.83029e+06
-1.72789e+06
-1.635e+06
-1.56025e+06
-1.37374e+06
-1.29973e+06
-1.29455e+06
-1.1359e+06
-989742
-923910
-974461
-1.01939e+06
-921753
-797587
-739459
-693564
-645436
-626731
-588887
-418823
-392211
-391440
-346192
-322300
-251482
-177355
-178095
-145631
-37726.3
-5114.88
7032.76
12699.2
30504.1
51943.8
65546.7
73420.3
75351.6
77427.5
79484.4
78387.6
76159.6
72053.3
66478.8
62326.8
58846.1
54809.9
50939.2
46714.4
42475.4
38347.8
34884.3
31692.2
28516.5
25752
23705.6
22499.6
21276.5
20080
18069.2
15008.8
11869.3
9684.14
8858.09
9977.82
11817.4
10991
6168.29
2540.67
2124.48
1968.06
1974.38
2755.24
2388.35
1458.82
1927.95
2473.12
2980.77
2811.92
3210.21
3824.83
1442.52
-472.098
-2.7526e+06
-2.75101e+06
-2.75308e+06
-2.7465e+06
-2.73661e+06
-2.72672e+06
-2.72061e+06
-2.72049e+06
-2.70733e+06
-2.69616e+06
-2.74473e+06
-2.73872e+06
-2.688e+06
-2.68956e+06
-2.64418e+06
-2.08021e+06
-2.02901e+06
-1.93785e+06
-1.84282e+06
-1.74253e+06
-1.63315e+06
-1.53862e+06
-1.40285e+06
-1.31054e+06
-1.27613e+06
-1.13229e+06
-1.006e+06
-947968
-989685
-1.01577e+06
-921131
-792444
-736945
-691047
-641120
-637114
-575581
-426911
-404753
-392888
-341442
-319422
-256174
-180638
-175608
-148515
-37750.1
-2669.13
11939.3
14082
31169.4
53367.2
67060.3
75312
77330.2
79495.3
80958.2
79480.7
77138.5
73032.8
67491.4
62961.4
59137.5
55148.3
51469.1
47172.8
42802.2
38544.4
35080.3
31950.9
28763.7
25949.9
23745.9
22428.2
21154.3
19883.8
18352.1
15289.2
12144.8
9885.63
8948.76
10137.9
11818.2
10799.7
5382.66
1795.9
1410.02
1327.25
1548.51
2491.72
2168.67
1237.23
1768.34
2450.2
2967.23
2651.83
3031.73
3980.9
1817.87
-169.794
-2.75056e+06
-2.75111e+06
-2.75275e+06
-2.74558e+06
-2.73528e+06
-2.72563e+06
-2.72017e+06
-2.71999e+06
-2.70562e+06
-2.69462e+06
-2.74706e+06
-2.72605e+06
-2.66804e+06
-2.66417e+06
-2.59493e+06
-2.08508e+06
-2.0067e+06
-1.93484e+06
-1.85342e+06
-1.74931e+06
-1.64414e+06
-1.52627e+06
-1.4074e+06
-1.32615e+06
-1.25978e+06
-1.12802e+06
-1.02357e+06
-974703
-1.00236e+06
-1.01203e+06
-921559
-784511
-732086
-691116
-645014
-647429
-568153
-437960
-415521
-393950
-336772
-316272
-261125
-186428
-173752
-143883
-42502.3
-1737.12
15230.1
15448.8
31276.1
53770.2
68616.6
76891.9
79599.6
81680.3
82415.7
80687.9
78095.9
74020.9
68506.4
63597.7
59348.7
55480.2
52050.7
47744.9
43068.7
38731.5
35260.2
32224.4
29064.6
26087.1
23769.9
22376.4
20899.2
19462.5
18684.1
15686.2
12560.7
10111.8
9067.51
10318
12223
10542
4730.36
1189.52
738.484
647.442
1051.23
2187.37
1991.24
1090.64
1636.19
2388.46
2948.53
2471.5
2863.67
4129.3
2230.39
232.714
-2.7489e+06
-2.75132e+06
-2.75245e+06
-2.74452e+06
-2.73387e+06
-2.72474e+06
-2.72e+06
-2.71923e+06
-2.70345e+06
-2.69292e+06
-2.74905e+06
-2.71207e+06
-2.64465e+06
-2.64432e+06
-2.52892e+06
-2.11203e+06
-1.98597e+06
-1.93152e+06
-1.8606e+06
-1.75725e+06
-1.65393e+06
-1.53103e+06
-1.40956e+06
-1.33394e+06
-1.24642e+06
-1.1269e+06
-1.03937e+06
-999220
-1.01341e+06
-1.00951e+06
-920987
-782827
-730342
-689511
-647368
-646470
-565134
-447901
-424252
-400937
-334681
-313676
-263457
-190605
-172131
-135516
-49663.7
-6204.56
16229.7
16496.6
31146.5
54169.8
69627.2
78515
82048.4
83764.7
83694.5
81826.4
79070.1
74976.5
69446.8
64230.2
59607.4
55778
52705.4
48281.3
43351.9
38939.9
35432.5
32448.1
29366.2
26237.4
23737.9
22278.2
20468.5
18825.7
18759.4
16282.1
13033.3
10315.1
9204.91
10602.5
12786.3
10318
4205.92
771.704
238.879
1.33238
508.272
1863.78
1850.32
971.011
1564.99
2291.81
2926.86
2218.38
2704.08
4237.37
2641.58
619.569
-2.74736e+06
-2.75162e+06
-2.75194e+06
-2.74328e+06
-2.73266e+06
-2.7238e+06
-2.7198e+06
-2.71837e+06
-2.70088e+06
-2.69109e+06
-2.74957e+06
-2.69846e+06
-2.62594e+06
-2.64804e+06
-2.46898e+06
-2.14837e+06
-1.98847e+06
-1.92872e+06
-1.86556e+06
-1.77027e+06
-1.66167e+06
-1.54068e+06
-1.41407e+06
-1.33486e+06
-1.24e+06
-1.12744e+06
-1.05206e+06
-1.02068e+06
-1.02364e+06
-1.00275e+06
-911890
-782377
-727632
-680289
-643704
-634109
-564453
-458766
-429521
-406937
-335265
-312757
-264454
-193826
-170731
-130435
-54375
-13220.3
15839.3
17753.3
31043.5
54358.3
70619.7
79968.8
83754.7
85399.8
85271.5
83002.9
79787.5
75824.1
70629.3
64931.9
59874.6
56188.9
53202.3
48744.6
43675.1
39149.5
35600.4
32634.5
29635.5
26421.1
23743.9
22134
19792
18034.2
18589
16935.7
13481
10610.5
9413.73
11322.3
13241.6
10266.8
3843.83
417.234
-197.749
-567.445
-49.0731
1492.86
1741.31
977.861
1494.5
2238.25
2798.51
1937.12
2549.72
4256.13
2956.17
1016.11
-2.74585e+06
-2.75181e+06
-2.75137e+06
-2.74189e+06
-2.73139e+06
-2.72316e+06
-2.71976e+06
-2.71745e+06
-2.69794e+06
-2.68903e+06
-2.7487e+06
-2.69252e+06
-2.61146e+06
-2.66918e+06
-2.45422e+06
-2.17691e+06
-1.98063e+06
-1.92719e+06
-1.87501e+06
-1.78411e+06
-1.66593e+06
-1.54823e+06
-1.42519e+06
-1.33578e+06
-1.23646e+06
-1.13073e+06
-1.0639e+06
-1.03808e+06
-1.03222e+06
-994269
-898280
-782338
-722894
-670674
-643290
-626839
-564174
-466550
-433917
-410479
-337270
-309818
-265202
-200592
-172101
-126537
-55114.4
-16721.6
14698.3
19210.9
31591.7
54926.2
71653.7
81330.8
85321.7
86871.4
86616.8
84123.7
80690.2
76653.8
71847.3
65733
60170.1
56624.7
53602.8
49223.2
44026.2
39382.9
35738.7
32808.1
29866.5
26626.9
23747.7
21979.4
18925.6
16759.8
18107.6
17615.3
13849.2
11129.2
10048
12494.9
13801.2
10307.2
3603.33
26.4435
-660.465
-1150.89
-633.189
1087.2
1582.59
1010.92
1452.37
2162.08
2626.35
1636.86
2417.14
4260.9
3276.68
1431.99
-2.74448e+06
-2.75183e+06
-2.75043e+06
-2.74045e+06
-2.73038e+06
-2.72272e+06
-2.71974e+06
-2.71638e+06
-2.69497e+06
-2.68686e+06
-2.74456e+06
-2.69267e+06
-2.59807e+06
-2.68477e+06
-2.44725e+06
-2.18253e+06
-1.97562e+06
-1.93144e+06
-1.88308e+06
-1.79364e+06
-1.6681e+06
-1.55335e+06
-1.44221e+06
-1.34086e+06
-1.23348e+06
-1.13549e+06
-1.07667e+06
-1.05251e+06
-1.03858e+06
-987344
-885168
-786311
-723563
-669796
-643518
-622170
-562857
-475367
-438795
-410715
-342465
-304583
-265228
-206603
-177430
-123624
-52659.8
-16097.6
11148.2
20236.7
32540.6
56018.6
72893
82860.7
86950.9
88314.9
88033.3
85309.8
81440.6
77417.6
72962.6
66559.2
60526.4
56991
53963
49704.8
44410.5
39641.1
35909
32976
30065
26821.9
23747.4
21674
17928.1
15246.5
17187.8
18058.2
14235
11859.4
11106.6
13998.8
14409.1
10420.6
3473.2
-342.788
-1230.59
-1714.52
-1235.51
607.306
1464.39
1086.1
1436.77
2094.53
2406.29
1343.58
2243.7
4226.72
3649.56
1862.8
-2.74314e+06
-2.75171e+06
-2.7493e+06
-2.73907e+06
-2.7294e+06
-2.7224e+06
-2.71981e+06
-2.71533e+06
-2.69204e+06
-2.68455e+06
-2.73707e+06
-2.68426e+06
-2.58666e+06
-2.69766e+06
-2.45612e+06
-2.14951e+06
-1.97327e+06
-1.93767e+06
-1.89121e+06
-1.8008e+06
-1.66727e+06
-1.55999e+06
-1.45986e+06
-1.34923e+06
-1.23523e+06
-1.1402e+06
-1.08948e+06
-1.06475e+06
-1.04439e+06
-983987
-874071
-794862
-728713
-672693
-641790
-620235
-563130
-482750
-444595
-410272
-348847
-300058
-263701
-211282
-182387
-120384
-50471.9
-18142.8
8044.49
20379.7
33108.9
57102.9
74280.8
84495.7
88685.6
89686.5
89263.7
86531.4
82375.1
78381.9
73863.3
67319.7
61015.3
57215.7
54253
50164.2
44826.8
39939.1
36106.3
33044.7
30265.6
27039.8
23729.8
21240.6
16723.9
13499.5
16103.9
18357.4
14733.1
12900.7
12550.2
15490.5
14827.6
10563.3
3560.42
-614.181
-1810.23
-2323.11
-1893.15
168.263
1364.15
1194.81
1377.96
1987.57
2161.85
965.541
2053.42
4260.54
3963.04
2204.44
-2.74193e+06
-2.75152e+06
-2.74806e+06
-2.73769e+06
-2.72852e+06
-2.72224e+06
-2.71983e+06
-2.71436e+06
-2.68928e+06
-2.68237e+06
-2.72664e+06
-2.66967e+06
-2.58272e+06
-2.69507e+06
-2.48642e+06
-2.11435e+06
-1.96888e+06
-1.94611e+06
-1.90103e+06
-1.80443e+06
-1.66598e+06
-1.56794e+06
-1.47842e+06
-1.36031e+06
-1.2384e+06
-1.14771e+06
-1.10065e+06
-1.0746e+06
-1.05349e+06
-983943
-862770
-806641
-736552
-675887
-641158
-620391
-565224
-487625
-451160
-412631
-351794
-297004
-260597
-215396
-186163
-118575
-48246.9
-20963.9
5012.39
19962.7
33940.5
58017.6
75840
86104.6
90494.7
91290.8
90542.2
87516.6
83300.1
79315.8
74737.8
68037.8
61427.9
57447.7
54583.8
50614.7
45171.7
40240.1
36268.6
33209.4
30396
27277.1
23702.1
20594.4
15653.6
11799
14789.2
18521.9
15414
14082.6
14084
16652.3
15128.6
10737.8
3722.92
-773.962
-2340.3
-2948.27
-2492.78
-243.379
1274.37
1255.96
1402.16
1835.99
1797.18
594.168
1826.05
4288.44
4282.95
2517.39
-2.74093e+06
-2.75125e+06
-2.74673e+06
-2.73648e+06
-2.72784e+06
-2.72219e+06
-2.71987e+06
-2.71333e+06
-2.68677e+06
-2.68039e+06
-2.71471e+06
-2.65731e+06
-2.59334e+06
-2.68073e+06
-2.52311e+06
-2.09974e+06
-1.96209e+06
-1.95717e+06
-1.91204e+06
-1.80807e+06
-1.66731e+06
-1.57765e+06
-1.49863e+06
-1.37522e+06
-1.24071e+06
-1.15769e+06
-1.11288e+06
-1.07919e+06
-1.06268e+06
-988506
-856305
-817644
-744704
-677297
-641907
-620426
-568312
-493898
-457084
-418388
-352185
-292080
-256244
-218897
-188696
-117752
-46732.2
-21420.3
2839.97
19410.8
34854.1
59017.8
77308.2
87756.1
92390.8
93110.9
91595.6
88441.2
84195.6
80159.6
75588.1
68754.9
61827.8
57658.3
54873.3
50945.2
45552.6
40577.2
36466.2
33286.9
30550.6
27511.9
23652.4
19892.7
14454.4
10242.3
13507.6
18554.9
16193.5
15331
15434.6
17432.1
15332
10927.4
3979.19
-874.163
-2777.31
-3531.35
-3021.9
-639.009
1125.56
1314.09
1402.16
1607.15
1398.6
301.128
1599.22
4304.63
4559.85
2727.43
-2.74004e+06
-2.7508e+06
-2.74545e+06
-2.73548e+06
-2.72725e+06
-2.7221e+06
-2.72002e+06
-2.71234e+06
-2.68464e+06
-2.67866e+06
-2.70387e+06
-2.65109e+06
-2.62312e+06
-2.68591e+06
-2.5385e+06
-2.08658e+06
-1.95472e+06
-1.96676e+06
-1.92374e+06
-1.81222e+06
-1.66936e+06
-1.59148e+06
-1.52134e+06
-1.39185e+06
-1.24488e+06
-1.16666e+06
-1.12455e+06
-1.08191e+06
-1.06741e+06
-992193
-856323
-826339
-750320
-676956
-642187
-619782
-572370
-501655
-462072
-426309
-354013
-285470
-251123
-222792
-190508
-117117
-45401.8
-20126.2
1908.04
20220.4
35990.3
59653.4
78073.8
89525.9
94338.5
94692.1
92717.8
89357.5
85035.1
80966.3
76351.6
69400.8
62208
57856.1
55066.7
51234.8
45966
40917.8
36639.6
33362.4
30687.5
27771.7
23664.8
19308.6
13222
8713.11
12063.3
18518.3
17057.4
16716
16694
17902.4
15495
11043.1
4264.38
-821.553
-3134.54
-4029.97
-3490.05
-997.334
955.519
1349.54
1364.26
1373.75
950.987
69.501
1453.06
4313.7
4780.93
2900.9
-2.73924e+06
-2.75016e+06
-2.74425e+06
-2.73463e+06
-2.72691e+06
-2.72193e+06
-2.71994e+06
-2.71153e+06
-2.68297e+06
-2.67709e+06
-2.69702e+06
-2.65318e+06
-2.654e+06
-2.70582e+06
-2.53701e+06
-2.07125e+06
-1.94932e+06
-1.97457e+06
-1.93343e+06
-1.81791e+06
-1.67215e+06
-1.6061e+06
-1.54789e+06
-1.40754e+06
-1.24807e+06
-1.17973e+06
-1.13535e+06
-1.0807e+06
-1.06812e+06
-996954
-859292
-830348
-753704
-675368
-642196
-618452
-575694
-509068
-468263
-432396
-356914
-279442
-245929
-225547
-191058
-116800
-45563.8
-18005.8
2123.36
19870.5
38047.1
61254.8
78553.9
90718.8
96135.7
96086
93779.6
90173.2
85797.3
81668.1
77054.4
69982.4
62591.5
57977
55192.4
51495.1
46397.9
41278.5
36808.2
33411.8
30811.5
28027.6
23705.1
19299.9
12095.9
7671.59
10840.7
18394.5
18035.2
17792.9
17635.5
18352.3
15513.7
11135.2
4644.36
-725.234
-3376.93
-4450.43
-3898.45
-1334.73
769.666
1354.38
1317.12
1142.08
598.001
-23.5108
1407.66
4402.53
4998.61
3034.77
-2.73863e+06
-2.74939e+06
-2.74311e+06
-2.73407e+06
-2.72665e+06
-2.72181e+06
-2.71968e+06
-2.71075e+06
-2.68191e+06
-2.67565e+06
-2.69448e+06
-2.66328e+06
-2.6755e+06
-2.72168e+06
-2.52911e+06
-2.05622e+06
-1.94702e+06
-1.98103e+06
-1.9417e+06
-1.82378e+06
-1.67677e+06
-1.62145e+06
-1.57467e+06
-1.42219e+06
-1.25263e+06
-1.194e+06
-1.14659e+06
-1.0742e+06
-1.06415e+06
-1.0063e+06
-870167
-831496
-756268
-674238
-641075
-615478
-577732
-518077
-475272
-435058
-358340
-274621
-241437
-225071
-191049
-118799
-46366.9
-16650.1
3250.48
19186.6
38665.3
62399.5
79577.8
91832.9
97702.5
97261.5
94684.8
90859.9
86461.7
82345.7
77672.8
70499.1
62915.8
58032.7
55285.8
51751.6
46814
41638.6
36956.9
33430.8
30908.4
28297.4
23856.1
19550.1
11257.9
6818.24
9812.31
18210.4
19100.1
18629.6
18218.1
18322.4
15418.2
11264.1
5062.65
-560.009
-3534.72
-4758.21
-4248.99
-1588.57
627.147
1356.24
1247.31
913.69
306.999
-58.5442
1466.09
4551.36
5244.62
3104.01
-2.73807e+06
-2.74845e+06
-2.74215e+06
-2.73359e+06
-2.72656e+06
-2.72181e+06
-2.71934e+06
-2.70984e+06
-2.68108e+06
-2.67472e+06
-2.69303e+06
-2.67407e+06
-2.6947e+06
-2.72306e+06
-2.50975e+06
-2.04593e+06
-1.94756e+06
-1.98539e+06
-1.94746e+06
-1.83105e+06
-1.68456e+06
-1.63711e+06
-1.59588e+06
-1.43631e+06
-1.25736e+06
-1.20716e+06
-1.15644e+06
-1.06463e+06
-1.05554e+06
-1.02595e+06
-882330
-824969
-758629
-674284
-637576
-612517
-580161
-529285
-483621
-438027
-359050
-269435
-236666
-223838
-190888
-120166
-48209.7
-15658.8
4406.87
18714.5
39245.4
62721.8
80182.2
92728.7
98947.3
98261.1
95441.9
91439.9
87098.4
82990.3
78216.1
70956.9
63238.6
58133.5
55430.7
51993.7
47223.8
42017.5
37114.2
33454.2
30992.6
28573.5
24216.5
20046.2
10669.4
5873.87
9002.6
18004.9
20119.8
19350.9
18669.3
17802.1
14959.4
11317
5337.92
-300.998
-3564.18
-5000.73
-4462.39
-1776.43
497.169
1321.7
1137.88
689.868
119.893
17.478
1572.88
4775.11
5525.52
3136.6
-2.73759e+06
-2.74745e+06
-2.74126e+06
-2.7333e+06
-2.72648e+06
-2.72171e+06
-2.71903e+06
-2.70909e+06
-2.68039e+06
-2.6746e+06
-2.69255e+06
-2.6811e+06
-2.70436e+06
-2.7177e+06
-2.48903e+06
-2.04185e+06
-1.94855e+06
-1.9866e+06
-1.95119e+06
-1.83874e+06
-1.69488e+06
-1.65344e+06
-1.6098e+06
-1.44614e+06
-1.26573e+06
-1.22131e+06
-1.16125e+06
-1.05169e+06
-1.04524e+06
-1.04434e+06
-893652
-812147
-757508
-672751
-632352
-611489
-585931
-540575
-494040
-443459
-359147
-263325
-231776
-221465
-189163
-122664
-50914.8
-14411.7
4375.78
18996.6
40079.5
62494.9
80146.3
93104.6
99705.2
99022
96041.2
91995
87856.6
83680.9
78709.1
71533.4
63619.2
58277.3
55600.3
52258.8
47696
42408.9
37346.4
33439.7
31067.4
28930.7
24830.7
20902.4
10648.7
5254.64
8387.62
17655.3
21125.4
20070.2
18905.2
16983.8
14285.9
11348.6
5749.59
-73.5012
-3499.01
-5150.72
-4617.66
-1862.45
359.999
1248.32
1066.31
533.922
64.8876
180.666
1765.98
4993.53
5811.57
3138.76
-2.73716e+06
-2.74639e+06
-2.74053e+06
-2.7331e+06
-2.72646e+06
-2.72154e+06
-2.71856e+06
-2.70836e+06
-2.68007e+06
-2.67514e+06
-2.6937e+06
-2.68545e+06
-2.70133e+06
-2.70582e+06
-2.46678e+06
-2.03916e+06
-1.9485e+06
-1.98181e+06
-1.95183e+06
-1.8478e+06
-1.70902e+06
-1.66571e+06
-1.62297e+06
-1.45253e+06
-1.27502e+06
-1.23282e+06
-1.16379e+06
-1.03579e+06
-1.02886e+06
-1.04161e+06
-892413
-794640
-759380
-671786
-626253
-610829
-594195
-551491
-504992
-450221
-358874
-257752
-226580
-218345
-186101
-125593
-55730.6
-14315.2
3754.36
19334.8
41229.5
62520.4
79082
92746.3
100016
99412.9
96521.5
92777.6
88781.4
84417.9
79352.8
72012.3
64010.5
58396.5
55756.5
52569.6
48154.4
42875.8
37608
33395
31122.4
29338.3
25725
21814.6
11282.3
5154.65
8092.97
17209.2
21968.2
20817.2
19161.4
16093.4
13622.6
11423.2
6279.76
245.785
-3400.86
-5185.9
-4715.67
-1856.59
226.326
1124.85
986.921
493.787
224.78
352.749
2021.09
5244.73
6126.69
3099.79
-2.73681e+06
-2.74529e+06
-2.73985e+06
-2.73301e+06
-2.72649e+06
-2.72138e+06
-2.71804e+06
-2.70744e+06
-2.67989e+06
-2.67582e+06
-2.69615e+06
-2.68796e+06
-2.69254e+06
-2.69102e+06
-2.44438e+06
-2.03695e+06
-1.94832e+06
-1.97136e+06
-1.94853e+06
-1.85843e+06
-1.72588e+06
-1.67567e+06
-1.63476e+06
-1.46188e+06
-1.28092e+06
-1.23957e+06
-1.16316e+06
-1.01662e+06
-1.00522e+06
-1.02572e+06
-875975
-783573
-758948
-671022
-622708
-610283
-602755
-563529
-514989
-457815
-359433
-254080
-221479
-213477
-183207
-130822
-60943.8
-16458.4
2497.49
20644.7
42280.3
61878.8
78259.7
92103.9
100072
99212.9
96994.9
93765.2
89737.1
85139.5
79869.7
72772.5
64394
58475.4
55897.1
52968.3
48686.4
43244.2
37931.4
33239.7
31143.8
29853
26805.8
22987.8
12164.1
5670.24
8157.98
16831.5
22456.8
21460.9
19276.6
15495.6
12952.1
11471.1
6982.51
726.243
-3364.27
-5176.32
-4559.88
-1893.16
161.229
989.665
899.951
666.149
591.967
531.698
2292.58
5512.48
6537.89
3064.68
-2.73656e+06
-2.74425e+06
-2.73931e+06
-2.73286e+06
-2.72656e+06
-2.72122e+06
-2.71744e+06
-2.70646e+06
-2.67983e+06