/*--------------------------------*- C++ -*----------------------------------*\
| =========                 |                                                 |
| \\      /  F ield         | foam-extend: Open Source CFD                    |
|  \\    /   O peration     | Version:     5.0                                |
|   \\  /    A nd           | Web:         http://www.foam-extend.org         |
|    \\/     M anipulation  |                                                 |
\*---------------------------------------------------------------------------*/
FoamFile
{
    version     2.0;
    format      ascii;
    class       surfaceScalarField;
    location    "0.09";
    object      phi;
}
// * * * * * * * * * * * * * * * * * * * * * * * * * * * * * * * * * * * * * //

dimensions      [0 3 -1 0 0 0 0];

internalField   nonuniform List<scalar> 
7860
(
-0.336566
0.341566
-0.427511
0.0909502
-0.468748
0.0412416
-0.466132
-0.00261186
-0.403634
-0.062494
-0.293457
-0.110172
-0.269533
-0.0239199
-0.721073
0.451543
-1.66311
0.942038
-2.71522
1.05211
-3.63952
0.924301
-3.87582
0.236308
-4.11145
0.235633
-5.48169
1.37023
-8.17346
2.69178
-10.5248
2.35132
-10.4554
-0.0693619
-9.90926
-0.546155
-9.77329
-0.135968
-9.56108
-0.212212
-9.09632
-0.464766
-7.89005
-1.20627
-6.10465
-1.78541
-4.84453
-1.26012
-4.27853
-0.566007
-2.78179
-1.49674
-1.79425
-0.987542
-1.68733
-0.10692
-1.98773
0.300398
-3.31879
1.33106
-4.13778
0.818986
-3.99595
-0.141829
-3.86213
-0.133824
-3.45624
-0.405891
-3.39778
-0.0584548
-3.15534
-0.242442
-2.78924
-0.366101
-2.85303
0.0637881
-2.97139
0.118362
-3.00235
0.0309585
-2.84726
-0.155093
-3.07321
0.225952
-3.59305
0.519843
-3.57259
-0.0204465
-3.38644
-0.186146
-3.2077
-0.178734
-3.05277
-0.154922
-3.0153
-0.037458
-2.87462
-0.140678
-2.52877
-0.345834
-2.15858
-0.370176
-1.89818
-0.260384
-1.67036
-0.227816
-1.48348
-0.18686
-1.28216
-0.201314
-1.05404
-0.22811
-0.903736
-0.15029
-0.7628
-0.140926
-0.630145
-0.132646
-0.517599
-0.112538
-0.384912
-0.13268
-0.329358
-0.0555478
-0.252375
-0.0769772
-0.201134
-0.0512363
-0.164142
-0.0369878
-0.128798
-0.0353408
-0.103633
-0.0251623
-0.0616926
-0.0419393
-0.0491267
-0.0125653
-0.0338596
-0.0152672
-0.0370791
0.00321878
-0.0404603
0.00337985
-0.0192173
-0.0212448
0.0204986
-0.0397182
0.0664238
-0.045928
0.104028
-0.0376068
0.129662
-0.0256376
0.138986
-0.00932822
0.142711
-0.00372855
0.131322
0.0113843
0.116285
0.0150326
0.146487
-0.0302062
0.215433
-0.0689501
0.288386
-0.0729559
0.29627
-0.00788826
0.256507
0.0397607
0.224665
0.0318391
0.190185
0.0344774
0.155448
0.0347346
0.130186
0.0252601
0.120198
0.00998708
0.0975946
0.0226018
0.0477132
0.0498803
0.00732859
0.0403839
-0.00266248
0.00999049
0.00263386
-0.00529672
0.016186
-0.0135524
0.019888
-0.00370227
0.0100179
0.00987003
-0.0133211
-0.420258
0.766829
-0.548043
0.218746
-0.514504
0.00771164
-0.417366
-0.0997417
-0.332049
-0.147804
-0.213992
-0.228222
-0.258604
0.0206978
-0.459188
0.652132
-0.567705
1.05056
-1.06877
1.55318
-2.96503
2.82056
-4.94734
2.21863
-6.28708
1.57538
-8.28941
3.37257
-11.1177
5.52004
-11.6221
2.85572
-10.0872
-1.60421
-8.70649
-1.92691
-7.45815
-1.38431
-7.43635
-0.234018
-9.46127
1.56014
-9.40722
-1.26032
-7.1056
-4.08703
-5.53623
-2.82949
-3.99203
-2.11021
-1.22297
-4.26581
0.0236668
-2.23418
-0.313959
0.230703
-0.975512
0.961948
-4.00894
4.36448
-6.4108
3.22085
-5.37805
-1.17459
-3.58358
-1.92829
-2.45147
-1.53801
-1.47837
-1.03156
-0.709667
-1.01114
-0.439097
-0.636671
-0.639187
0.263878
-1.01766
0.496839
-1.26177
0.275069
-1.51412
0.0972587
-1.96462
0.676459
-2.67629
1.23153
-3.46629
0.769564
-3.87916
0.226735
-4.06089
0.00301527
-4.04823
-0.167563
-4.04905
-0.0366191
-4.0986
-0.0911068
-3.96716
-0.477253
-3.65673
-0.680584
-3.33931
-0.577772
-3.08425
-0.482858
-2.82838
-0.442709
-2.58123
-0.44844
-2.32747
-0.481847
-2.08304
-0.394706
-1.83184
-0.392108
-1.59706
-0.367413
-1.38852
-0.321065
-1.26399
-0.257193
-1.06554
-0.253986
-0.879575
-0.262937
-0.726588
-0.204216
-0.582497
-0.181073
-0.473593
-0.144241
-0.330503
-0.168249
-0.257727
-0.114714
-0.208182
-0.0621099
-0.138937
-0.0845141
-0.136185
0.000464048
-0.139093
0.00628456
-0.092578
-0.0677644
-0.0126522
-0.11965
0.0772211
-0.135808
0.174741
-0.135134
0.250233
-0.101137
0.281241
-0.0403449
0.291933
-0.0144297
0.28329
0.0200184
0.283842
0.0144723
0.359242
-0.105614
0.499487
-0.209203
0.606676
-0.180153
0.62468
-0.0258986
0.553493
0.110943
0.446692
0.138635
0.34045
0.140715
0.263269
0.111912
0.230994
0.0575311
0.193223
0.047756
0.156419
0.059403
0.0980876
0.10821
0.0328278
0.105642
0.00489202
0.0379253
0.0105337
-0.010939
0.0251874
-0.0282066
0.0239055
-0.00242061
-0.00449141
0.0382668
-0.0130175
-0.116316
0.888151
-0.0454293
0.147868
0.162904
-0.200616
0.468445
-0.405277
0.847965
-0.527319
1.20183
-0.582086
1.34585
-0.123314
1.2014
0.796581
0.548628
1.70334
-0.789896
2.89171
-2.87302
4.90369
-5.11772
4.46333
-6.26478
2.72243
-6.51898
3.62677
-6.94317
5.94423
-6.41698
2.32952
-5.14564
-2.87554
-4.47273
-2.59982
-4.61681
-1.24023
-4.69646
-0.154372
-4.39325
1.25693
-3.32181
-2.33177
-2.35991
-5.04894
-2.15366
-3.03574
-2.15529
-2.10858
-1.99119
-4.42991
-2.09917
-2.12621
-2.69888
0.830408
-3.77724
2.0403
-5.46331
6.05054
-5.08246
2.83999
-4.27123
-1.98582
-3.21288
-2.98665
-2.33405
-2.41684
-1.59859
-1.76702
-0.886198
-1.72354
-0.441131
-1.08174
-0.238827
0.0615742
-0.539194
0.797208
-1.57982
1.31569
-1.7672
0.284649
-1.5299
0.439165
-1.86773
1.56936
-2.62063
1.52248
-3.26142
0.867532
-3.75624
0.497849
-3.90768
-0.0160994
-3.80524
-0.139042
-3.98464
0.0883115
-4.1427
-0.319174
-4.05073
-0.77253
-3.80883
-0.819645
-3.59181
-0.699857
-3.38696
-0.647537
-3.17717
-0.658217
-3.00493
-0.654061
-2.72696
-0.672666
-2.4551
-0.66395
-2.20251
-0.619988
-1.96036
-0.563206
-1.7419
-0.475636
-1.55305
-0.442831
-1.42246
-0.393513
-1.19762
-0.429051
-0.991151
-0.38754
-0.819542
-0.315846
-0.650596
-0.337192
-0.506815
-0.258494
-0.367473
-0.201453
-0.315378
-0.13661
-0.272119
-0.0427975
-0.22212
-0.0437183
-0.168311
-0.121578
-0.0889109
-0.199056
0.0199924
-0.244718
0.136961
-0.25211
0.244263
-0.208448
0.329005
-0.125095
0.332268
-0.0177021
0.330681
0.0215968
0.367201
-0.0220557
0.455507
-0.193929
0.568321
-0.322024
0.663525
-0.275364
0.640682
-0.00306172
0.527821
0.223798
0.368287
0.298165
0.220625
0.288373
0.106489
0.226044
0.0421295
0.121888
0.0468558
0.0430271
0.0573121
0.0489445
0.0614822
0.104038
0.0256568
0.141466
0.00514764
0.0584335
0.00746809
-0.0132601
0.0162834
-0.0370223
0.00339401
0.0104685
-0.00847672
0.0501373
-0.0389995
0.210023
0.683133
0.410487
-0.0525898
0.647873
-0.437996
1.0068
-0.764203
1.4222
-0.942716
1.81333
-0.973211
2.09146
-0.40144
2.04489
0.843155
1.6464
2.10183
0.505985
4.03213
-1.02214
6.43182
-1.9747
5.4159
-2.62826
3.376
-3.45465
4.45316
-4.38954
6.87912
-4.78772
2.7277
-4.52301
-3.14025
-4.26588
-2.85695
-2.83802
-2.6681
-0.946996
-2.0454
-0.80872
1.11865
-0.559047
-2.58145
0.214454
-5.82245
-0.352868
-2.46843
-1.64184
-0.819617
-2.63874
-3.43301
-4.6538
-0.11115
-5.85815
2.03475
-6.8311
3.01324
-5.75281
4.97225
-3.70138
0.788555
-2.82828
-2.85893
-0.78872
-5.02621
-0.234869
-2.97069
-0.651494
-1.3504
-0.910068
-1.46496
-1.38343
-0.608375
-1.57689
0.255031
-2.11515
1.33547
-3.11647
2.31702
-2.69064
-0.141172
-1.58566
-0.665813
-1.51188
1.4956
-2.07424
2.08485
-2.80099
1.59429
-3.41753
1.1144
-3.60798
0.174374
-3.70709
-0.0399252
-3.88108
0.262321
-4.1441
-0.056128
-4.19976
-0.71685
-4.03655
-0.982828
-3.85661
-0.879777
-3.67518
-0.828945
-3.48509
-0.848292
-3.26383
-0.875298
-3.03212
-0.904368
-2.78151
-0.914538
-2.5405
-0.860981
-2.30616
-0.797537
-2.07632
-0.705463
-1.86835
-0.650797
-1.66589
-0.595964
-1.46633
-0.628602
-1.31704
-0.536831
-1.09188
-0.541004
-0.890686
-0.538382
-0.719925
-0.429254
-0.58479
-0.336588
-0.520177
-0.201224
-0.417601
-0.145376
-0.309533
-0.15179
-0.252602
-0.178514
-0.174373
-0.277291
-0.0619727
-0.357124
0.0688367
-0.382926
0.187986
-0.327605
0.283089
-0.220205
0.332103
-0.0667236
0.334787
0.0189058
0.379016
-0.066292
0.462229
-0.277149
0.543028
-0.402831
0.586304
-0.318646
0.534838
0.0483987
0.36198
0.396651
0.165855
0.494286
-0.0146914
0.468915
-0.156667
0.368016
-0.214653
0.179871
-0.198829
0.0272003
-0.107851
-0.0420355
-0.0245924
0.0207785
-0.0130811
0.129954
-0.02107
0.0664216
-0.0183379
-0.0159928
-0.0246266
-0.0307339
-0.0278803
0.013722
-0.0507267
0.0729836
-0.0286535
0.40131
0.286827
0.658267
-0.309542
0.912489
-0.692215
1.24161
-1.09332
1.63601
-1.33711
2.01278
-1.34998
2.30682
-0.69548
2.39961
0.750367
2.12675
2.3747
1.20878
4.9501
-0.05794
7.69854
-0.701982
6.05994
-1.27393
3.94794
-2.45589
5.63512
-3.26168
7.68491
-2.25467
1.72069
-0.988754
-4.40617
-0.93596
-2.90974
-1.35257
-2.25149
-0.24293
-3.15504
0.70617
0.169552
-0.161645
-1.71363
-1.31538
-4.66871
-2.9033
-0.880511
-4.00017
0.277249
-3.42383
-4.00935
-3.47667
-0.0583185
-3.01059
1.56867
-4.47462
4.47727
-5.32665
5.82427
-1.56309
-2.97502
2.3705
-6.79252
3.75095
-6.40667
3.1836
-2.40335
1.87708
-0.0438871
-0.370372
0.782486
-2.20442
1.22567
-2.46044
0.511055
-2.15512
1.03014
-1.83163
1.99353
-1.27156
-0.701234
-0.705328
-1.23204
-0.847207
1.63748
-1.34899
2.58664
-2.17971
2.42502
-2.78661
1.72131
-3.07205
0.459826
-3.24648
0.134515
-3.50728
0.523145
-3.85659
0.293197
-4.04573
-0.52769
-4.01069
-1.01784
-3.88773
-1.00271
-3.72468
-0.991971
-3.55324
-1.01972
-3.3459
-1.08262
-3.12548
-1.12477
-2.89356
-1.14644
-2.67377
-1.08076
-2.45899
-1.01231
-2.24249
-0.921951
-2.03767
-0.85561
-1.82007
-0.813553
-1.61377
-0.834897
-1.36811
-0.782487
-1.20779
-0.701323
-1.04054
-0.705631
-0.872743
-0.597049
-0.774668
-0.434662
-0.647738
-0.328155
-0.493855
-0.299261
-0.399368
-0.24628
-0.336377
-0.241508
-0.255555
-0.358117
-0.140481
-0.472203
-0.00879488
-0.514618
0.122162
-0.458568
0.233468
-0.331518
0.300914
-0.134177
0.334865
-0.0150515
0.36269
-0.094123
0.434961
-0.349427
0.490058
-0.457934
0.4584
-0.286993
0.326191
0.180603
0.13978
0.583057
-0.100668
0.734729
-0.299058
0.667301
-0.431779
0.500734
-0.482525
0.230615
-0.426244
-0.0290822
-0.287167
-0.181114
-0.133996
-0.132394
-0.0749423
0.0708985
-0.0653381
0.0568166
-0.0677591
-0.0135724
-0.073569
-0.0249243
-0.0800197
0.0201726
-0.0960951
0.0890589
-0.0288418
0.476345
-0.184516
0.812513
-0.645706
1.05728
-0.93698
1.34108
-1.37711
1.66762
-1.66364
2.02449
-1.70684
2.26066
-0.931649
2.42017
0.590857
2.23358
2.5613
1.38009
5.80359
0.572795
8.50584
0.0979331
6.5348
-0.650976
4.69685
-1.46057
6.44472
-1.0775
7.30184
1.11192
-0.468728
2.21692
-5.51117
2.0187
-2.71153
0.911339
-1.14413
0.723469
-2.96717
0.706918
0.186101
-0.197125
-0.809593
-2.59368
-2.27216
-4.30151
0.827316
-5.52601
1.50174
-6.49891
-3.03646
-4.97538
-1.58186
-2.96999
-0.43673
-2.98706
4.49434
-0.640975
3.47817
3.35113
-6.96713
6.0259
-9.4673
6.5694
-6.95016
6.12202
-1.95597
4.70524
1.37289
2.4152
3.07252
0.442169
3.1987
0.489939
0.463286
1.76065
-0.24057
1.73248
2.02171
0.67729
0.35396
0.084615
-0.639359
-0.022181
1.74428
-0.472406
3.03687
-1.18119
3.13381
-1.76976
2.30989
-2.18111
0.871184
-2.40265
0.356067
-2.81684
0.937353
-3.2776
0.753972
-3.59915
-0.206124
-3.75893
-0.858043
-3.71452
-1.0471
-3.56772
-1.13875
-3.40889
-1.17853
-3.24883
-1.24266
-3.01568
-1.3579
-2.83227
-1.32984
-2.6548
-1.25822
-2.46353
-1.20356
-2.27147
-1.114
-2.0834
-1.04367
-1.87548
-1.02147
-1.67455
-1.03582
-1.45924
-0.997791
-1.23465
-0.92591
-1.10614
-0.834141
-1.00245
-0.700737
-0.880632
-0.556483
-0.716515
-0.492273
-0.554996
-0.460783
-0.467001
-0.334278
-0.420044
-0.288468
-0.327109
-0.451057
-0.211714
-0.587602
-0.0758986
-0.650439
0.0567618
-0.591234
0.175849
-0.450611
0.266694
-0.225029
0.304515
-0.0528777
0.34137
-0.130983
0.374487
-0.38255
0.384733
-0.468185
0.303706
-0.205971
0.126279
0.358025
-0.136187
0.845519
-0.38777
0.986307
-0.568414
0.847942
-0.690104
0.622421
-0.678554
0.219063
-0.587037
-0.120602
-0.431247
-0.336905
-0.250983
-0.31266
-0.153756
-0.0263297
-0.126644
0.0297044
-0.121747
-0.0184696
-0.130724
-0.0159485
-0.1606
0.0500491
-0.183639
0.112098
-0.035411
0.529609
-0.709122
0.897894
-1.01399
1.16613
-1.20521
1.38169
-1.59267
1.68354
-1.96549
2.01886
-2.04215
2.24697
-1.15976
2.29302
0.544808
2.11305
2.74127
1.57606
6.34058
1.05717
9.02473
0.710659
6.88132
-0.193987
5.6015
-1.43307
7.6838
-0.48385
6.35262
2.9358
-3.88838
3.84766
-6.42302
3.73309
-2.59697
2.83771
-0.248753
1.54195
-1.67141
0.41284
1.31521
-0.0994347
-0.29732
-2.17361
-0.197982
-4.13919
2.79289
-4.46027
1.82281
-4.76682
-2.72992
-3.68631
-2.66237
-3.16075
-0.962289
-2.16664
3.50022
2.63879
-1.32726
6.78246
-11.1108
8.41222
-11.0971
7.91017
-6.44811
6.46886
-0.514663
5.19569
2.64606
4.66328
3.60492
4.20503
3.65696
3.77856
0.889759
4.2027
-0.664711
3.89887
2.32554
1.99913
2.2537
0.5309
0.828874
0.620278
1.65491
0.432357
3.2248
-0.122545
3.68872
-0.713595
2.90095
-1.0583
1.2159
-1.44403
0.741812
-1.9421
1.43543
-2.45781
1.2697
-2.9724
0.308476
-3.33114
-0.499279
-3.36248
-1.01575
-3.25792
-1.24328
-3.11688
-1.31955
-2.98016
-1.37937
-2.83911
-1.49893
-2.68501
-1.48393
-2.55663
-1.38659
-2.36104
-1.39914
-2.21252
-1.26251
-2.04888
-1.2073
-1.8563
-1.21404
-1.66973
-1.22239
-1.42634
-1.24118
-1.26431
-1.08793
-1.16953
-0.928917
-1.05527
-0.815
-0.901947
-0.709805
-0.735754
-0.658468
-0.630598
-0.565941
-0.552864
-0.412014
-0.460392
-0.380944
-0.380242
-0.531212
-0.267473
-0.700376
-0.139511
-0.778407
-0.00456427
-0.726187
0.123645
-0.578827
0.218857
-0.320247
0.279455
-0.113481
0.303543
-0.155076
0.306798
-0.385811
0.251776
-0.413167
0.150305
-0.104504
-0.086001
0.594326
-0.394923
1.15444
-0.649357
1.24074
-0.807421
1.006
-0.838254
0.653251
-0.799674
0.180481
-0.702395
-0.217883
-0.533855
-0.505446
-0.360119
-0.486397
-0.241966
-0.144484
-0.196696
-0.0155667
-0.183547
-0.0316189
-0.186053
-0.0134432
-0.205344
0.0693409
-0.210424
0.117177
-0.046957
0.576111
-1.28023
0.968246
-1.40612
1.19194
-1.4289
1.35586
-1.75659
1.59918
-2.20879
1.95917
-2.40215
2.34914
-1.54972
2.32179
0.572157
1.98308
3.07999
1.73825
6.58542
1.40851
9.35448
1.1066
7.18323
1.13427
5.57383
0.0592941
8.75877
0.968239
5.44367
3.67683
-6.59697
3.63447
-6.38067
3.15387
-2.11636
2.40891
0.496204
0.108313
0.629185
-0.882193
2.30571
-0.32004
-0.859475
-1.51804
1.00002
-2.37597
3.65081
-3.24045
2.6873
-5.56153
-0.40885
-3.95307
-4.27084
-3.19739
-1.71797
-0.446913
0.749736
5.48438
-7.25856
7.84984
-13.4763
7.81656
-11.0638
7.20791
-5.83946
5.95839
0.734863
4.87019
3.73426
4.42394
4.05117
3.94789
4.13301
3.92822
0.909428
4.6808
-1.41729
4.66971
2.33663
3.03088
3.89254
1.16166
2.69809
0.848769
1.96781
0.933197
3.14038
0.640887
3.98104
0.253961
3.28789
-0.183083
1.65295
-0.560818
1.11956
-0.99785
1.87247
-1.61541
1.88727
-2.16597
0.859046
-2.4917
-0.173532
-2.66642
-0.841021
-2.70035
-1.20934
-2.66311
-1.35677
-2.60624
-1.43623
-2.53788
-1.56728
-2.44672
-1.57507
-2.31701
-1.51629
-2.24498
-1.47115
-2.11689
-1.3906
-1.96925
-1.35493
-1.80627
-1.37701
-1.58527
-1.44338
-1.42465
-1.4018
-1.28439
-1.22819
-1.16251
-1.05079
-1.04285
-0.934663
-0.874984
-0.877667
-0.771482
-0.761971
-0.677067
-0.660357
-0.561481
-0.527603
-0.498236
-0.444192
-0.419914
-0.609538
-0.315678
-0.804616
-0.192206
-0.901885
-0.0646318
-0.853766
0.0643693
-0.707834
0.17642
-0.432303
0.239737
-0.176802
0.271201
-0.186545
0.234765
-0.34938
0.144161
-0.322568
-0.00988926
0.0495412
-0.297401
0.881833
-0.645048
1.50208
-0.886319
1.48201
-0.977097
1.09678
-0.958533
0.634684
-0.872054
0.0939999
-0.755314
-0.334625
-0.601628
-0.659133
-0.447333
-0.640693
-0.328597
-0.263221
-0.263817
-0.0803475
-0.237418
-0.0580177
-0.248784
-0.00207747
-0.247867
0.0684237
-0.221228
0.0905378
-0.0559074
0.616992
-1.89222
1.01068
-1.7998
1.19178
-1.61
1.2771
-1.8419
1.45848
-2.39017
1.76657
-2.71023
2.18027
-1.96342
2.32606
0.426368
2.06627
3.33979
1.89205
6.75964
1.68879
9.55774
1.52469
7.34733
1.76855
5.32998
1.05894
9.46838
2.49933
4.00328
4.31136
-8.409
4.06115
-6.13046
2.85583
-0.911036
1.87335
1.47868
0.0806144
2.42192
-1.07236
3.45868
-0.790302
-1.14153
-1.40543
1.61515
-2.0564
4.30178
-3.14775
3.77864
-5.88886
2.33226
-4.47844
-5.68126
-1.85628
-4.34014
2.16263
-3.26918
6.53211
-11.628
7.32642
-14.2706
5.88861
-9.62598
4.74781
-4.69867
4.13687
1.3458
3.58795
4.28318
3.52291
4.11621
2.50784
5.14808
2.31862
1.09864
3.65265
-2.75132
4.57438
1.4149
3.70391
4.76301
1.92524
4.47677
1.11411
2.77895
1.21112
3.04337
0.96831
4.22386
0.690081
3.56612
0.562335
1.7807
0.288809
1.39309
-0.10823
2.26952
-0.697075
2.47613
-1.21298
1.37496
-1.6166
0.230106
-1.89948
-0.558126
-2.06142
-1.04738
-2.16026
-1.25792
-2.18763
-1.40883
-2.18204
-1.57286
-2.14321
-1.61389
-2.09078
-1.56871
-2.03273
-1.5292
-1.9604
-1.46292
-1.85529
-1.46003
-1.72119
-1.51111
-1.55628
-1.60828
-1.40631
-1.55177
-1.27072
-1.36378
-1.13067
-1.19084
-1.00443
-1.0609
-0.888204
-0.993897
-0.783075
-0.867102
-0.691463
-0.751971
-0.589424
-0.629645
-0.517656
-0.515963
-0.446523
-0.680675
-0.354146
-0.896999
-0.249766
-1.00627
-0.12897
-0.974568
0.00544245
-0.842252
0.118723
-0.545589
0.202047
-0.260131
0.222411
-0.206913
0.173123
-0.300096
0.0566285
-0.206077
-0.14805
0.254215
-0.505309
1.23909
-0.838546
1.83531
-1.04683
1.69028
-1.10268
1.15262
-1.02614
0.558141
-0.8898
-0.0423392
-0.746763
-0.477664
-0.625715
-0.780182
-0.509921
-0.756488
-0.406777
-0.366366
-0.324127
-0.162998
-0.28947
-0.0926758
-0.298453
0.00690552
-0.285293
0.0552635
-0.241279
0.0465242
-0.0797879
0.61278
-2.5
1.01617
-2.2032
1.19347
-1.78729
1.20409
-1.85252
1.25504
-2.44111
1.48496
-2.94015
1.87444
-2.3529
2.23369
0.0671231
2.25186
3.32161
2.23225
6.77926
2.02801
9.76197
1.71548
7.65986
1.75988
5.28559
1.47458
9.75368
3.71181
1.76605
4.45515
-9.15234
2.83635
-4.51166
1.35302
0.572294
1.22256
1.60914
-0.0745468
3.71902
-1.32786
4.71199
-0.562571
-1.90682
-0.668455
1.72103
-1.86628
5.4996
-1.34794
3.26029
-2.31412
3.29844
-3.37678
-4.61862
-0.822264
-6.89466
4.09641
-8.18785
6.54765
-14.0793
4.90747
-12.6304
2.55048
-7.269
1.7658
-3.91399
1.51817
1.59343
1.09551
4.70585
1.5249
3.68681
1.59901
5.07397
1.32368
1.37398
2.1508
-3.57844
4.02661
-0.460907
4.45881
4.33081
3.50914
5.42645
2.58572
3.70237
2.2321
3.397
1.60373
4.85223
1.17507
3.99479
0.98217
1.9736
0.798184
1.57708
0.633012
2.4347
0.257464
2.85168
-0.243427
1.87586
-0.730815
0.717503
-1.09979
-0.189143
-1.40705
-0.740109
-1.6456
-1.01936
-1.7729
-1.28152
-1.82143
-1.52432
-1.83271
-1.6026
-1.82488
-1.57653
-1.80585
-1.54822
-1.77515
-1.49361
-1.71176
-1.52342
-1.60389
-1.61897
-1.48026
-1.73191
-1.35108
-1.68096
-1.23601
-1.47884
-1.0653
-1.36155
-0.932609
-1.19359
-0.868551
-1.05796
-0.783839
-0.951814
-0.695731
-0.840081
-0.611785
-0.713593
-0.532237
-0.595514
-0.467624
-0.745292
-0.394359
-0.970268
-0.307742
-1.09289
-0.206496
-1.07582
-0.0727903
-0.975963
0.0573964
-0.675781
0.142313
-0.345052
0.169199
-0.233803
0.109014
-0.239915
-0.0300945
-0.0669726
-0.297949
0.522065
-0.675229
1.61636
-0.997065
2.15714
-1.14515
1.83837
-1.13013
1.1376
-1.0264
0.454413
-0.879434
-0.18931
-0.74649
-0.610609
-0.625065
-0.901608
-0.540139
-0.841414
-0.453306
-0.453201
-0.363207
-0.253098
-0.333379
-0.122504
-0.344931
0.0184578
-0.31676
0.0270921
-0.252399
-0.0178363
-0.102626
0.597012
-3.09201
1.01624
-2.62242
1.19097
-1.96203
1.17784
-1.83939
1.12654
-2.38981
1.20495
-3.01855
1.4988
-2.64674
1.9556
-0.38967
2.30459
2.97262
2.46374
6.62012
2.29571
9.93
1.90216
8.05342
1.49683
5.69092
1.51045
9.74007
4.2229
-0.946403
3.74007
-8.66951
1.32294
-2.09453
-0.0182649
1.9135
0.0031895
1.58768
-1.22373
4.94594
-2.05737
5.54562
-0.693296
-3.27089
-0.759566
1.78729
-1.90019
6.64022
0.0390446
1.32105
1.49167
1.84582
-0.218227
-2.90873
0.863994
-7.97689
4.65119
-11.9751
5.37429
-14.8024
2.69969
-9.95581
1.38315
-5.95246
2.08276
-4.6136
2.16275
1.51344
0.996464
5.87213
1.25537
3.42791
2.10516
4.22418
1.68014
1.799
1.16404
-3.06234
2.40814
-1.705
4.02669
2.71227
4.24943
5.20371
4.0203
3.9315
3.82254
3.59477
3.09441
5.58036
2.1464
4.94281
1.45478
2.66523
0.958643
2.07322
0.895215
2.49813
0.838253
2.90865
0.500563
2.21355
0.0645632
1.15351
-0.409622
0.28505
-0.899927
-0.249796
-1.19823
-0.721046
-1.38116
-1.09859
-1.47931
-1.42615
-1.52188
-1.56002
-1.55036
-1.54805
-1.571
-1.52757
-1.58393
-1.48066
-1.55003
-1.55732
-1.47238
-1.69661
-1.37237
-1.83191
-1.28307
-1.77026
-1.15004
-1.61187
-1.0484
-1.46319
-0.976735
-1.26525
-0.87048
-1.16421
-0.776222
-1.04607
-0.720024
-0.896281
-0.636941
-0.796678
-0.542596
-0.689861
-0.487068
-0.800824
-0.439021
-1.01832
-0.391516
-1.1404
-0.305743
-1.1616
-0.163723
-1.11799
-0.0400925
-0.799415
0.0668346
-0.451983
0.103352
-0.270323
0.0274931
-0.16406
-0.128866
0.0893833
-0.427105
0.820301
-0.831501
2.02076
-1.08567
2.41131
-1.18006
1.93276
-1.13422
1.09175
-0.996633
0.316828
-0.856964
-0.328981
-0.714477
-0.753097
-0.606154
-1.00993
-0.536417
-0.911152
-0.454867
-0.534752
-0.379889
-0.328076
-0.373173
-0.12922
-0.386917
0.0322014
-0.346403
-0.0134221
-0.265731
-0.0985086
-0.131829
0.571918
-3.65893
0.9699
-3.0204
1.15058
-2.14271
1.16692
-1.85572
1.08446
-2.30735
1.03033
-2.96442
1.14736
-2.76376
1.6056
-0.847908
2.14788
2.43034
2.64735
6.12065
2.51206
10.0653
1.72816
8.83732
0.820513
6.59857
1.37355
9.18703
4.31135
-3.8842
1.85684
-6.21499
-0.228705
-0.00898984
-0.558293
2.24308
-1.39324
2.42263
-2.1375
5.6902
-1.66917
5.07729
-0.482048
-4.45802
0.176479
1.12876
0.866255
5.95044
1.86994
0.317352
2.92117
0.794585
3.32577
-3.31333
4.10349
-8.75461
4.24047
-12.112
2.85245
-13.4144
0.916012
-8.01937
0.914845
-5.95129
2.0942
-5.79295
2.71237
0.895263
2.24782
6.33668
2.54136
3.13437
3.15158
3.61395
3.17581
1.77478
1.83367
-1.7202
1.54357
-1.41491
3.10516
1.15068
3.92874
4.38013
4.18408
3.67616
4.14171
3.63714
3.71816
6.00391
2.73093
5.93005
1.71025
3.68591
1.01853
2.76495
0.998542
2.51812
1.20102
2.70617
1.11571
2.29887
0.65939
1.60983
0.142759
0.801688
-0.279062
0.172032
-0.69953
-0.30057
-0.980739
-0.81737
-1.13307
-1.27381
-1.22186
-1.47122
-1.27603
-1.49387
-1.38872
-1.41488
-1.40761
-1.46177
-1.38634
-1.57858
-1.32993
-1.75302
-1.2625
-1.89934
-1.19791
-1.83484
-1.1057
-1.70408
-1.05227
-1.51662
-0.955413
-1.36211
-0.855763
-1.26386
-0.787443
-1.11439
-0.692633
-0.991092
-0.59469
-0.894623
-0.540903
-0.743651
-0.508308
-0.833422
-0.493901
-1.03273
-0.495616
-1.13869
-0.443533
-1.21368
-0.286043
-1.27548
-0.128211
-0.95725
-0.0193049
-0.560893
0.0130974
-0.302729
-0.0582357
-0.0927296
-0.225574
0.256718
-0.572211
1.16694
-0.940598
2.38914
-1.13244
2.60314
-1.19627
1.99659
-1.1301
1.02557
-0.967932
0.154659
-0.820132
-0.476782
-0.677956
-0.895274
-0.56584
-1.12205
-0.508866
-0.968127
-0.453683
-0.589935
-0.405785
-0.375975
-0.413057
-0.121949
-0.422956
0.0421001
-0.361012
-0.0753662
-0.266646
-0.192874
-0.158625
0.512897
-4.16682
0.857761
-3.36526
1.03463
-2.31957
1.128
-1.94909
1.08925
-2.26861
0.969911
-2.84507
0.977152
-2.771
1.33593
-1.20669
1.82324
1.94304
2.44781
5.49608
2.51865
9.99445
1.99687
9.3591
0.72129
7.87415
1.75791
8.15041
4.09202
-6.21832
0.651999
-2.77497
-1.08397
1.72697
-0.931187
2.0903
-2.41324
3.90468
-3.43771
6.71466
-1.35088
2.99046
-0.416757
-5.39214
-1.02947
1.74148
0.630443
4.29052
2.95576
-2.00797
4.37705
-0.62671
4.10021
-3.03649
3.55801
-8.21241
2.50907
-11.0631
0.823019
-11.7283
0.239127
-7.43548
0.619085
-6.33125
1.83968
-7.01355
3.17254
-0.437599
2.60286
6.90635
1.89695
3.84028
3.23791
2.27299
3.24014
1.77255
1.2165
0.303444
0.226785
-0.425188
0.937407
0.440061
2.48763
2.82991
3.30164
2.86215
3.50437
3.43442
3.67889
5.82939
3.1158
6.49314
2.13863
4.66309
1.30362
3.59997
1.14635
2.67539
1.45052
2.40201
1.35101
2.39839
1.0507
1.91014
0.627909
1.22449
0.123593
0.676353
-0.272943
0.0959715
-0.606551
-0.483755
-0.813573
-1.06678
-0.938691
-1.3461
-1.08113
-1.35142
-1.13697
-1.35904
-1.18857
-1.41017
-1.19807
-1.56907
-1.16115
-1.78995
-1.12688
-1.93361
-1.0806
-1.88112
-1.06074
-1.72394
-0.986979
-1.59037
-0.905713
-1.44338
-0.847184
-1.32239
-0.74931
-1.21227
-0.656636
-1.08377
-0.597716
-0.953544
-0.540012
-0.801357
-0.526533
-0.846903
-0.566333
-0.992931
-0.64843
-1.0566
-0.626273
-1.23585
-0.441215
-1.46054
-0.250948
-1.14752
-0.12157
-0.690273
-0.0852489
-0.339053
-0.153904
-0.0240769
-0.344918
0.447729
-0.693017
1.51503
-1.04632
2.74244
-1.22136
2.77818
-1.20068
1.97592
-1.06523
0.890113
-0.913455
0.0028827
-0.787309
-0.60293
-0.649665
-1.03292
-0.534213
-1.2375
-0.484793
-1.01755
-0.455539
-0.619189
-0.431706
-0.399808
-0.44567
-0.107985
-0.43712
0.0335492
-0.363785
-0.148701
-0.261547
-0.295113
-0.190523
0.463012
-4.62483
0.800802
-3.70305
0.980302
-2.49907
1.05334
-2.02213
1.0399
-2.25516
0.909478
-2.71465
0.824398
-2.68592
1.0918
-1.47409
1.51168
1.52316
2.16842
4.83934
2.46193
9.70095
2.58976
9.23127
1.65559
8.80832
2.81978
6.98623
3.4656
-6.86414
0.496591
0.194043
-0.937005
3.16057
-1.59778
2.75108
-3.08649
5.39339
-2.97726
6.60543
0.45579
-0.442588
0.469323
-5.40568
0.127954
2.08284
2.85529
1.56318
4.08872
-3.2414
4.95996
-1.49795
4.39127
-2.46781
2.51781
-6.33895
1.33402
-9.8793
0.565941
-10.9602
0.96022
-7.82977
0.384423
-5.75546
0.388567
-7.01769
2.32108
-2.37011
2.7126
6.51483
2.00485
4.54803
1.97594
2.30189
1.07443
2.67407
-0.0495186
1.42739
-0.201518
-0.273187
0.581076
-0.342531
1.73645
1.67454
1.58546
3.01315
1.91605
3.10383
2.95373
4.79172
3.20143
6.24544
2.42125
5.44328
1.64989
4.37133
1.47189
2.85339
1.64794
2.22597
1.59001
2.45631
1.32383
2.17633
0.983919
1.5644
0.640094
1.02018
0.157617
0.578453
-0.249799
-0.0763341
-0.508099
-0.808475
-0.740906
-1.11328
-0.833433
-1.25889
-0.899021
-1.29344
-0.970453
-1.33873
-0.967324
-1.5722
-0.946382
-1.81088
-0.969739
-1.91025
-0.962627
-1.88823
-0.918136
-1.76843
-0.895762
-1.61275
-0.842108
-1.49703
-0.780286
-1.38421
-0.722065
-1.27049
-0.62755
-1.17828
-0.564544
-1.01655
-0.542002
-0.823902
-0.553525
-0.835383
-0.654686
-0.891773
-0.827765
-0.88352
-0.850326
-1.21329
-0.624685
-1.68619
-0.394858
-1.37735
-0.242042
-0.843092
-0.200408
-0.380689
-0.26071
0.0362226
-0.452349
0.639366
-0.814497
1.87718
-1.10981
3.03776
-1.2111
2.87947
-1.1284
1.89321
-0.988944
0.750657
-0.85572
-0.130343
-0.731147
-0.727503
-0.613008
-1.15106
-0.516373
-1.33414
-0.47441
-1.05951
-0.461455
-0.632144
-0.452436
-0.408827
-0.454969
-0.105452
-0.41818
-0.00323961
-0.326842
-0.240039
-0.23184
-0.390115
-0.216591
0.374287
-4.99412
0.665853
-3.99461
0.836137
-2.66935
0.915064
-2.10105
0.931749
-2.27185
0.795498
-2.5784
0.656549
-2.54697
0.851255
-1.66879
1.27116
1.10325
1.7463
4.36421
2.25988
9.18737
3.02022
8.47093
2.5296
9.29894
3.60152
5.91431
2.24868
-5.5113
-0.703927
3.14665
-1.22987
3.68651
-0.751931
2.27314
-1.09194
5.7334
0.591059
4.92243
2.85675
-2.70828
1.71392
-4.26284
1.51471
2.28204
3.07316
0.00473194
3.77282
-3.94107
4.78679
-2.51192
5.25693
-2.93795
3.63391
-4.71593
1.97274
-8.21813
1.58152
-10.569
1.89184
-8.14009
0.991677
-4.85529
-0.291338
-5.73468
0.948451
-3.6099
1.85145
5.61183
1.83097
4.56851
1.97321
2.15964
0.797866
3.84941
0.245618
1.97964
0.176676
-0.204243
-0.525841
0.359989
0.0317515
1.11695
-0.337777
3.38268
-0.0682938
2.83435
1.79203
2.93139
2.86326
5.17421
2.70109
5.60546
2.12199
4.95043
1.89494
3.08045
1.97236
2.14856
1.84737
2.5813
1.60642
2.41727
1.23748
1.93334
0.838939
1.41873
0.448799
0.968597
0.0584895
0.313979
-0.289954
-0.460027
-0.482784
-0.920449
-0.593749
-1.14792
-0.679364
-1.20783
-0.715443
-1.30265
-0.795281
-1.49236
-0.867226
-1.73894
-0.859644
-1.91783
-0.840837
-1.90704
-0.847714
-1.76155
-0.809611
-1.65085
-0.769271
-1.53737
-0.715534
-1.43795
-0.628941
-1.35708
-0.579219
-1.22801
-0.537167
-1.0586
-0.517573
-0.843497
-0.570995
-0.781963
-0.742412
-0.720359
-1.00655
-0.619386
-1.08895
-1.13089
-0.860667
-1.91448
-0.562567
-1.67545
-0.38127
-1.02439
-0.325581
-0.43638
-0.366885
0.0775253
-0.585176
0.857654
-0.906847
2.19885
-1.10248
3.23339
-1.12695
2.90394
-1.03999
1.80624
-0.913618
0.624281
-0.79435
-0.249612
-0.681036
-0.840818
-0.573241
-1.25886
-0.495134
-1.41225
-0.466687
-1.08796
-0.469176
-0.629655
-0.471692
-0.406312
-0.454619
-0.122526
-0.372704
-0.085155
-0.273582
-0.339161
-0.197226
-0.466471
-0.234872
0.256724
-5.24584
0.544838
-4.28272
0.744173
-2.86868
0.818236
-2.17511
0.798927
-2.25253
0.698432
-2.4779
0.596782
-2.44531
0.70677
-1.77878
1.05108
0.758939
1.38488
4.03042
2.06033
8.51192
3.13932
7.39194
3.04142
9.39685
4.07081
4.88491
0.631156
-2.07165
-1.65757
5.43537
-0.721192
2.75013
-0.454868
2.00682
-0.0839113
5.36244
2.51887
2.31965
2.12417
-2.31358
0.477047
-2.61572
3.02694
-0.267852
5.06029
-2.02862
5.32986
-4.21064
5.9828
-3.16486
5.86744
-2.8226
5.00401
-3.8525
4.07235
-7.28648
3.23458
-9.73126
2.8188
-7.72431
1.78381
-3.8203
0.335563
-4.28643
0.37897
-3.65331
1.54479
4.44601
1.91246
4.20084
1.60273
2.46936
0.753308
4.69884
0.447038
2.28591
0.198545
0.04425
-0.582656
1.14119
-0.942165
1.47646
-1.24597
3.68649
-0.614256
2.20264
0.921881
1.39526
2.36883
3.72727
2.48649
5.4878
2.01933
5.41759
2.01479
3.08499
2.07086
2.09249
1.93054
2.72162
1.65536
2.69245
1.35899
2.22971
1.01875
1.75897
0.693414
1.29394
0.344841
0.662555
0.0162659
-0.131449
-0.214431
-0.689749
-0.366604
-0.995745
-0.46993
-1.1045
-0.551997
-1.22058
-0.633822
-1.41053
-0.699096
-1.67366
-0.717796
-1.89913
-0.715735
-1.9091
-0.69404
-1.78324
-0.707528
-1.63736
-0.69126
-1.55364
-0.651077
-1.47813
-0.587763
-1.4204
-0.51595
-1.29982
-0.500656
-1.0739
-0.506443
-0.837711
-0.57996
-0.708449
-0.851723
-0.448597
-1.19546
-0.275653
-1.31473
-1.01163
-1.09646
-2.13274
-0.758815
-2.01311
-0.532162
-1.25105
-0.44939
-0.519154
-0.494124
0.122258
-0.713823
1.07735
-1.00057
2.48559
-1.11516
3.34797
-1.07633
2.86511
-0.949531
1.67945
-0.825582
0.500331
-0.73279
-0.342405
-0.64115
-0.932458
-0.552973
-1.34703
-0.487371
-1.47785
-0.461761
-1.11357
-0.475651
-0.615766
-0.474379
-0.407584
-0.406675
-0.19023
-0.292619
-0.19921
-0.195135
-0.436645
-0.134411
-0.527196
-0.250285
0.169801
-5.41064
0.409009
-4.52193
0.573195
-3.03287
0.713896
-2.31581
0.742278
-2.28092
0.620888
-2.35651
0.480636
-2.30506
0.544497
-1.84264
0.834552
0.468885
1.19852
3.66645
2.03384
7.67659
3.2234
6.20239
3.31062
9.30963
4.1335
4.06203
0.881627
1.18022
0.00696387
6.31004