/*--------------------------------*- C++ -*----------------------------------*\
| =========                 |                                                 |
| \\      /  F ield         | foam-extend: Open Source CFD                    |
|  \\    /   O peration     | Version:     5.0                                |
|   \\  /    A nd           | Web:         http://www.foam-extend.org         |
|    \\/     M anipulation  |                                                 |
\*---------------------------------------------------------------------------*/
FoamFile
{
    version     2.0;
    format      ascii;
    class       volVectorField;
    location    "0.09";
    object      U;
}
// * * * * * * * * * * * * * * * * * * * * * * * * * * * * * * * * * * * * * //

dimensions      [0 1 -1 0 0 0 0];

internalField   nonuniform List<vector> 
4000
(
(-34.4309 12.3518 0)
(-82.8602 5.5011 0)
(-92.7817 2.86808 0)
(-92.5386 -0.356977 0)
(-85.7906 -1.66451 0)
(-81.2084 -0.724912 0)
(-42.1552 -3.33807 0)
(-67.7823 20.389 0)
(-229.258 33.296 0)
(-423.571 29.4466 0)
(-666.344 19.9389 0)
(-792.435 18.0384 0)
(-752.624 -3.48481 0)
(-903.085 24.0619 0)
(-1371.62 74.9588 0)
(-1923.23 138.984 0)
(-2068.21 40.992 0)
(-2086.81 -9.15423 0)
(-1985.95 -28.9286 0)
(-1935.11 -45.7351 0)
(-1920.11 -28.4594 0)
(-1697.94 -32.2757 0)
(-1422.41 -23.4737 0)
(-1035.29 36.6303 0)
(-915.537 39.6499 0)
(-755.354 -62.5091 0)
(-430.637 -46.8333 0)
(-291.366 137.708 0)
(-324.164 109.589 0)
(-506.35 76.3895 0)
(-825.069 68.6431 0)
(-781.84 34.6931 0)
(-831.014 29.9292 0)
(-719.149 -30.229 0)
(-679.659 -11.0145 0)
(-682.614 5.95796 0)
(-571.526 2.28114 0)
(-562.836 43.1185 0)
(-563.552 33.5155 0)
(-609.514 15.982 0)
(-597.075 11.3674 0)
(-556.043 19.6416 0)
(-679.529 20.9657 0)
(-729.857 -7.97924 0)
(-698.386 -9.52366 0)
(-672.803 -5.09233 0)
(-606.953 -3.43418 0)
(-618.472 -0.499506 0)
(-580.072 -4.47225 0)
(-564.412 -12.9664 0)
(-455.66 -10.6495 0)
(-410.74 -7.21044 0)
(-346.603 -6.32112 0)
(-316.587 -6.27714 0)
(-279.072 -5.65628 0)
(-234.306 -7.00735 0)
(-188.732 -4.67376 0)
(-172.648 -3.23814 0)
(-132.578 -3.14536 0)
(-119.714 -3.17936 0)
(-87.1015 -3.2386 0)
(-68.1806 -1.48242 0)
(-62.2287 -1.70059 0)
(-41.4922 -0.564128 0)
(-37.5375 -0.462423 0)
(-28.5432 -0.52006 0)
(-23.8468 -0.383742 0)
(-14.8649 -0.757223 0)
(-12.3712 0.0171597 0)
(-7.87581 -0.149087 0)
(-5.14856 0.321408 0)
(-8.67127 0.0938873 0)
(-7.14138 -0.571896 0)
(-0.733182 -1.06852 0)
(9.6968 -1.04745 0)
(17.0453 -0.802093 0)
(23.7253 -0.467827 0)
(27.7595 -0.0344267 0)
(28.0445 -0.136931 0)
(27.5551 0.309592 0)
(22.6038 0.640357 0)
(26.0551 -0.693294 0)
(36.282 -1.91551 0)
(51.3097 -2.15573 0)
(61.4624 -0.551647 0)
(55.0563 1.08762 0)
(46.5056 0.569917 0)
(45.3938 0.850238 0)
(32.3198 0.812451 0)
(27.8226 0.677009 0)
(24.8949 0.441416 0)
(23.6068 0.866807 0)
(13.5235 1.57372 0)
(5.4413 1.14573 0)
(-0.451798 0.26586 0)
(-0.502299 -0.118703 0)
(2.52097 -0.301761 0)
(3.39719 -0.0517535 0)
(2.15525 0.392563 0)
(3.92649 -0.281776 0)
(-36.3149 29.9407 0)
(-108.234 8.16218 0)
(-118.014 2.18312 0)
(-86.1254 -0.877127 0)
(-74.8406 -3.04164 0)
(-60.5732 -5.25481 0)
(-29.5213 1.94193 0)
(-75.6806 24.013 0)
(-119.821 43.1589 0)
(-94.2758 57.9775 0)
(-344.658 83.8627 0)
(-832.843 50.8709 0)
(-1152.18 35.909 0)
(-1362.08 132.021 0)
(-2017.13 219.112 0)
(-2431.3 120.162 0)
(-2087.21 -65.7106 0)
(-1910.24 -79.9816 0)
(-1651.43 -32.3425 0)
(-1343 2.23114 0)
(-1674.45 33.0151 0)
(-2077.92 -65.2875 0)
(-1636.09 -169.851 0)
(-1215.42 -128.424 0)
(-1027.33 -79.1203 0)
(-536.13 -138.579 0)
(-25.0117 -99.9083 0)
(26.9112 -108.665 0)
(-74.2932 -22.276 0)
(-387.635 99.5922 0)
(-1193.99 117.573 0)
(-1315.8 -21.0147 0)
(-852.358 -10.3814 0)
(-588.909 23.3427 0)
(-412.933 38.3709 0)
(-177.595 17.6888 0)
(-103.724 13.7182 0)
(-81.8936 30.0274 0)
(-162.365 30.1502 0)
(-237.296 12.7073 0)
(-266.216 -0.739733 0)
(-354.023 23.8255 0)
(-438.161 47.5789 0)
(-604.232 18.9153 0)
(-782.372 -2.79316 0)
(-786.233 -9.86035 0)
(-834.097 -10.6105 0)
(-790.134 -1.36857 0)
(-820.745 -6.49961 0)
(-813.577 -22.4935 0)
(-782.464 -28.6471 0)
(-683.536 -21.6719 0)
(-649.611 -18.3753 0)
(-579.869 -15.7828 0)
(-553.08 -15.971 0)
(-479.906 -18.2922 0)
(-453.347 -14.2235 0)
(-379.03 -13.6784 0)
(-353.873 -12.4482 0)
(-285.698 -10.4086 0)
(-268.523 -9.54229 0)
(-239.57 -7.50326 0)
(-184.343 -8.09828 0)
(-170.802 -6.25936 0)
(-118.249 -4.81303 0)
(-115.076 -3.82999 0)
(-75.6631 -4.24919 0)
(-53.0501 -3.26402 0)
(-53.3097 -1.48039 0)
(-30.5227 -2.05612 0)
(-24.4496 0.323512 0)
(-28.7804 0.571955 0)
(-26.4706 -2.0539 0)
(-10.8284 -3.72577 0)
(6.75016 -4.2552 0)
(24.3146 -3.79932 0)
(44.5504 -2.71611 0)
(55.0515 -0.908924 0)
(57.8234 -0.24943 0)
(57.2281 0.811218 0)
(52.7648 0.754997 0)
(63.5845 -3.1936 0)
(84.6742 -6.7929 0)
(117.03 -6.42624 0)
(122.25 -1.0262 0)
(125.335 3.26075 0)
(95.1041 3.56663 0)
(85.8366 3.76778 0)
(52.0715 3.40272 0)
(50.8079 1.8462 0)
(42.6938 1.65149 0)
(34.9286 2.50851 0)
(25.0986 4.37655 0)
(14.0468 3.66209 0)
(1.74519 1.12667 0)
(0.374686 -0.400404 0)
(5.05224 -1.0528 0)
(4.45898 -0.215394 0)
(1.97733 1.15712 0)
(-1.55351 -0.697769 0)
(-0.197569 44.5654 0)
(-22.4011 10.0489 0)
(-2.3824 -4.68045 0)
(68.7982 -10.6556 0)
(122.233 -14.4929 0)
(216.262 -18.0455 0)
(262.926 4.13457 0)
(270.626 39.7641 0)
(204.394 74.8144 0)
(26.7051 117.648 0)
(-356.82 199.273 0)
(-782.367 171.849 0)
(-1265.22 126.759 0)
(-1237.44 190.448 0)
(-1434.99 303.02 0)
(-1363.07 125.987 0)
(-1069.5 -119.448 0)
(-967.835 -112.483 0)
(-880.788 -64.2052 0)
(-973.653 9.5549 0)
(-939.14 72.4413 0)
(-793.057 -101.438 0)
(-491.976 -240.856 0)
(-465.612 -149.737 0)
(-429.823 -140.174 0)
(-380.14 -251.112 0)
(-492.443 -107.034 0)
(-454.173 32.2309 0)
(-423.42 62.3254 0)
(-1215.85 271.434 0)
(-926.252 172.517 0)
(-1027.53 -73.981 0)
(-704.139 -142.073 0)
(-589.292 -136.736 0)
(-373.949 -108.803 0)
(-263.956 -112.488 0)
(-95.0228 -83.5117 0)
(-86.9162 -15.7167 0)
(6.97097 16.2835 0)
(-219.807 22.3251 0)
(-405.349 13.073 0)
(-320.194 30.7671 0)
(-297.355 71.0667 0)
(-421.794 56.2214 0)
(-629.069 23.0409 0)
(-689.751 11.6927 0)
(-808.024 -4.93875 0)
(-761.068 -6.06923 0)
(-752.642 -1.35446 0)
(-835.869 -22.546 0)
(-830.048 -37.5747 0)
(-793.77 -35.5121 0)
(-727.012 -29.5726 0)
(-705.5 -27.7978 0)
(-651.046 -28.4656 0)
(-619.686 -28.2973 0)
(-585.599 -26.1546 0)
(-503.587 -26.166 0)
(-478.681 -24.595 0)
(-403.238 -22.1009 0)
(-380.166 -18.0974 0)
(-318.466 -16.9306 0)
(-300.407 -16.3595 0)
(-272.309 -15.5548 0)
(-204.816 -13.8191 0)
(-192.39 -11.2864 0)
(-135.887 -12.1673 0)
(-121.697 -9.07343 0)
(-84.2035 -6.01674 0)
(-62.5844 -5.22007 0)
(-63.8049 -0.867941 0)
(-43.5744 -0.54811 0)
(-44.6999 -4.58532 0)
(-23.0502 -7.85806 0)
(-11.6338 -9.37243 0)
(19.8474 -9.5715 0)
(34.0595 -7.4141 0)
(62.8498 -3.84622 0)
(69.5122 -0.568848 0)
(61.7853 1.32831 0)
(67.2275 -0.247448 0)
(82.0739 -7.68589 0)
(104.671 -13.5147 0)
(124.492 -11.6984 0)
(137.697 -1.19826 0)
(115.987 7.67422 0)
(94.6896 10.5441 0)
(54.7002 10.2774 0)
(35.0163 7.96144 0)
(5.5719 4.62488 0)
(12.1736 2.71405 0)
(6.87732 3.59295 0)
(13.4233 6.21724 0)
(11.3544 6.65478 0)
(1.36313 2.52432 0)
(0.922792 -0.615366 0)
(3.12365 -1.71746 0)
(3.13424 0.287537 0)
(-5.07966 2.2539 0)
(3.41271 -1.30773 0)
(56.3012 39.5901 0)
(52.0194 3.74649 0)
(105.473 -14.4692 0)
(154.057 -29.5422 0)
(251.844 -36.0374 0)
(317.648 -35.9238 0)
(407.148 -10.6273 0)
(423.089 47.0207 0)
(390.148 98.9917 0)
(282.853 176.252 0)
(-97.7 288.299 0)
(-310.231 255.483 0)
(-468.398 150.78 0)
(-571.75 200.15 0)
(-889.094 296.69 0)
(-901.394 65.038 0)
(-854.257 -140.874 0)
(-935.752 -131.97 0)
(-839.369 -95.7135 0)
(-306.315 -68.3201 0)
(-88.8493 73.5009 0)
(-215.562 -123.069 0)
(18.6599 -277.358 0)
(46.2649 -179.023 0)
(-213.635 -92.2022 0)
(-345.43 -199.005 0)
(-809.175 -17.5034 0)
(-1125.06 105.7 0)
(-1071.47 155.586 0)
(-1794.61 278.196 0)
(-474.909 69.9464 0)
(-881.64 -119.264 0)
(-298.034 -208.873 0)
(-17.415 -145.581 0)
(-109.18 -94.4967 0)
(-144.187 -85.1032 0)
(-237.543 -59.1879 0)
(-317.501 3.49956 0)
(-289.399 49.4553 0)
(-562.123 93.0172 0)
(-672.085 0.322519 0)
(-418.939 7.90632 0)
(-227.443 79.6586 0)
(-347.682 94.0662 0)
(-485.914 62.375 0)
(-647.848 38.6749 0)
(-713.563 2.20231 0)
(-734.055 -3.66716 0)
(-744.19 8.4525 0)
(-802.011 -9.64789 0)
(-863.522 -40.2913 0)
(-819.773 -46.0103 0)
(-792.382 -40.218 0)
(-745.512 -36.7661 0)
(-726.653 -38.1286 0)
(-667.32 -38.0789 0)
(-641.382 -39.4042 0)
(-569.814 -39.3994 0)
(-543.234 -37.0055 0)
(-473.978 -34.0334 0)
(-447.99 -29.3989 0)
(-383.861 -27.1613 0)
(-361.992 -24.4175 0)
(-306.985 -25.9485 0)
(-278.205 -23.3157 0)
(-249.646 -21.326 0)
(-186.663 -21.9114 0)
(-168.061 -17.1759 0)
(-122.208 -13.2255 0)
(-111.91 -8.77509 0)
(-96.5087 -4.21684 0)
(-68.8979 -4.47471 0)
(-54.2312 -7.25211 0)
(-47.4032 -11.99 0)
(-21.4436 -15.0028 0)
(-3.1846 -15.7421 0)
(29.9788 -13.3225 0)
(44.478 -8.3047 0)
(69.1587 -1.85177 0)
(62.4941 0.985425 0)
(68.4722 -2.12879 0)
(84.9619 -11.7829 0)
(104.187 -18.7448 0)
(115.637 -15.674 0)
(115.201 0.271057 0)
(95.9423 15.059 0)
(48.8407 19.3585 0)
(19.5092 18.6943 0)
(-24.259 14.5827 0)
(-40.1424 7.56617 0)
(-44.5951 2.20264 0)
(-35.1005 0.865244 0)
(-10.6195 3.90622 0)
(1.39629 7.39037 0)
(-4.4618 3.34593 0)
(-3.84587 -0.733942 0)
(-2.30028 -1.6849 0)
(-7.73417 0.488843 0)
(-6.85253 3.03948 0)
(-11.9798 -1.68908 0)
(76.5249 24.9989 0)
(108.208 -8.33635 0)
(146.97 -28.5554 0)
(218.041 -45.679 0)
(281.551 -56.3037 0)
(374.405 -58.1918 0)
(430.454 -26.3203 0)
(485.514 43.2608 0)
(470.326 116.418 0)
(396.108 226.38 0)
(68.1491 357.344 0)
(-99.9703 286.008 0)
(-154.05 180.265 0)
(-347.24 240.081 0)
(-737.93 376.46 0)
(-592.246 190.275 0)
(-123.808 -176.95 0)
(-220.077 -129.795 0)
(-258.551 -122.983 0)
(-301.629 -139.938 0)
(179.634 23.8125 0)
(131.873 -110.408 0)
(-155.664 -283.725 0)
(-437.202 -128.25 0)
(-731.34 -18.6386 0)
(-734.074 -149.172 0)
(-771.325 -39.5846 0)
(-667.725 113.329 0)
(-387.847 166.215 0)
(-1544.59 316.88 0)
(-596.144 -41.5974 0)
(127.117 -239.273 0)
(777.497 -282.898 0)
(715.433 -118.416 0)
(523.225 -19.8075 0)
(248.279 -16.1139 0)
(-422.596 27.6269 0)
(-464.351 24.9781 0)
(-491.256 84.1385 0)
(-384.375 137.24 0)
(-333.504 -21.1288 0)
(-175.651 -44.7391 0)
(-129.907 76.2987 0)
(-180.132 117.42 0)
(-362.182 102.436 0)
(-523.639 69.2323 0)
(-582.55 14.8247 0)
(-650.238 -0.137354 0)
(-646.963 17.0307 0)
(-750.313 3.31582 0)
(-797.683 -32.3747 0)
(-824.035 -51.4469 0)
(-778.303 -47.8396 0)
(-771.644 -46.1603 0)
(-720.577 -46.9579 0)
(-700.817 -49.7568 0)
(-640.446 -50.8966 0)
(-607.757 -51.5079 0)
(-550.548 -48.8721 0)
(-520.016 -45.2751 0)
(-463.246 -40.8101 0)
(-434.765 -37.7654 0)
(-379.292 -34.9993 0)
(-350.382 -36.3976 0)
(-295.215 -32.6674 0)
(-251.836 -30.6788 0)
(-230.856 -30.9834 0)
(-184.522 -25.4882 0)
(-166.35 -19.7687 0)
(-144.453 -12.8021 0)
(-114.362 -10.6326 0)
(-81.4162 -9.61102 0)
(-78.0864 -10.615 0)
(-56.9228 -15.7897 0)
(-44.33 -20.6874 0)
(-11.7132 -22.4385 0)
(7.49163 -19.4713 0)
(40.6907 -13.73 0)
(52.8474 -4.83329 0)
(66.3383 0.361713 0)
(65.4445 -3.67338 0)
(80.7829 -16.0708 0)
(97.1472 -22.1729 0)
(102.17 -15.6248 0)
(77.2778 5.5735 0)
(49.819 23.9618 0)
(6.72948 30.2133 0)
(-45.045 28.1648 0)
(-73.799 22.3245 0)
(-100.353 10.6136 0)
(-91.4041 0.494318 0)
(-79.6773 -5.2578 0)
(-37.6236 -2.42926 0)
(-15.0468 5.55385 0)
(-12.999 3.38078 0)
(-13.0818 -0.638641 0)
(-12.8699 -1.4556 0)
(-16.3619 0.774447 0)
(-19.4463 3.97379 0)
(-18.1881 -1.61395 0)
(90.5388 3.76973 0)
(124.981 -22.6817 0)
(190.032 -40.3149 0)
(232.873 -62.0359 0)
(306.106 -75.7156 0)
(362.637 -77.8934 0)
(448.068 -44.1357 0)
(449.189 31.4993 0)
(516.017 122.048 0)
(396.482 269.828 0)
(130.762 408.193 0)
(79.5135 315.565 0)
(8.16261 216.193 0)
(-275.649 300.057 0)
(-464.113 356.471 0)
(106.456 47.1186 0)
(450.257 -261.915 0)
(462.335 -115.746 0)
(285.091 -83.4683 0)
(99.5072 -147.885 0)
(134.703 -5.45471 0)
(179.153 -61.2402 0)
(-190.328 -179.541 0)
(-971.538 40.5999 0)
(-741.727 100.45 0)
(-1249 -191.787 0)
(-1566.01 -38.9032 0)
(-445.17 30.9475 0)
(-580.519 245.24 0)
(-739.461 254.171 0)
(416.725 -244.442 0)
(1065.93 -407.766 0)
(1318.65 -343.724 0)
(1295.48 -137.013 0)
(1133.88 10.4857 0)
(764.783 85.1657 0)
(188.712 118.823 0)
(-21.2378 20.6087 0)
(237.825 15.3494 0)
(451.028 85.3874 0)
(267.018 -27.2052 0)
(-3.70106 -81.9049 0)
(14.6227 83.2782 0)
(3.39688 141.987 0)
(-195.812 138.016 0)
(-288.055 104.157 0)
(-410.372 33.3009 0)
(-466.583 11.24 0)
(-494.631 35.368 0)
(-628.729 23.852 0)
(-683.498 -19.5302 0)
(-760.896 -49.6883 0)
(-740.513 -53.2513 0)
(-740.22 -53.4522 0)
(-689.251 -54.797 0)
(-674.492 -58.4892 0)
(-627.835 -63.081 0)
(-576.016 -62.8255 0)
(-558.078 -58.9864 0)
(-505.098 -56.0269 0)
(-479.992 -51.0727 0)
(-429.536 -47.7715 0)
(-402.902 -45.9822 0)
(-348.79 -47.2469 0)
(-320.956 -44.1155 0)
(-263.037 -40.7619 0)
(-229.666 -39.0837 0)
(-212.304 -33.2506 0)
(-190.965 -24.9613 0)
(-161.87 -20.3742 0)
(-123.925 -18.7176 0)
(-96.867 -14.7316 0)
(-89.8265 -13.3043 0)
(-78.4466 -20.222 0)
(-51.3462 -26.4883 0)
(-33.2235 -29.0826 0)
(2.20035 -26.3083 0)
(19.8574 -19.4298 0)
(50.3248 -8.74912 0)
(55.3697 -1.68234 0)
(64.5767 -5.88105 0)
(72.8881 -18.4819 0)
(80.6739 -23.4816 0)
(76.8154 -12.7243 0)
(40.6243 12.9668 0)
(6.03756 34.9362 0)
(-59.5857 42.8247 0)
(-93.2372 38.3418 0)
(-133.728 28.241 0)
(-143.629 11.6261 0)
(-126.422 -3.91296 0)
(-109.193 -12.6182 0)
(-65.5149 -10.7121 0)
(-33.8069 1.5103 0)
(-26.0257 2.40481 0)
(-24.6348 -0.683002 0)
(-22.9848 -1.02972 0)
(-28.4621 1.79489 0)
(-40.1727 5.0869 0)
(-33.3869 -1.68079 0)
(99.6133 -21.0232 0)
(138.691 -40.186 0)
(208.245 -53.0086 0)
(258.039 -74.8255 0)
(296.164 -91.8567 0)
(379.596 -93.4878 0)
(429.873 -48.5494 0)
(462.3 29.1096 0)
(455.97 133.821 0)
(409.948 306.801 0)
(189.676 443.597 0)
(202.021 331.784 0)
(150.385 257.937 0)
(-248.176 365.827 0)
(-526.309 362.097 0)
(483.876 -119.753 0)
(765.804 -303.008 0)
(773.914 -206.324 0)
(688.866 -68.5334 0)
(510.541 -123.582 0)
(1.14559 30.2485 0)
(198.457 -27.5423 0)
(-174.634 -53.6629 0)
(-780.494 93.5237 0)
(-882.966 73.958 0)
(-763.818 -147.235 0)
(-1276.3 -86.5971 0)
(-220.625 -46.6286 0)
(-860.597 239.96 0)
(-151.527 100.806 0)
(1169.34 -451.243 0)
(1628.18 -543.398 0)
(1723.59 -359.952 0)
(1425.89 -72.0773 0)
(1150.28 96.8313 0)
(942.418 171.328 0)
(908.145 162.008 0)
(779.932 22.4302 0)
(744.216 -35.2582 0)
(907.583 96.942 0)
(701.084 64.4347 0)
(70.1769 -8.8872 0)
(130.2 89.5994 0)
(137.055 157.99 0)
(33.6059 173.539 0)
(-90.951 130.735 0)
(-185.903 51.3591 0)
(-240.638 26.5414 0)
(-339.602 59.6423 0)
(-434.997 51.0262 0)
(-546.769 1.24095 0)
(-648.189 -36.4383 0)
(-680.485 -53.4188 0)
(-660.327 -61.3101 0)
(-645.293 -63.4662 0)
(-602.104 -66.2107 0)
(-591.456 -71.9511 0)
(-542.57 -71.114 0)
(-532.35 -66.574 0)
(-491.638 -65.6992 0)
(-452.654 -60.2827 0)
(-433.135 -56.6559 0)
(-385.567 -56.4748 0)
(-358.399 -56.3209 0)
(-309.325 -56.1589 0)
(-261.364 -50.6249 0)
(-243.224 -43.863 0)
(-224.421 -37.4687 0)
(-200.153 -31.1405 0)
(-160.548 -28.4277 0)
(-132.774 -26.0359 0)
(-119.183 -18.7377 0)
(-101.683 -16.5686 0)
(-82.3369 -24.5968 0)
(-68.8499 -32.2343 0)
(-37.9336 -35.8526 0)
(-18.6038 -32.9525 0)
(16.1869 -25.6924 0)
(32.8903 -13.6602 0)
(53.7498 -3.73464 0)
(56.4394 -7.31976 0)
(65.6827 -19.7417 0)
(61.1035 -22.469 0)
(43.2123 -7.79488 0)
(12.3657 22.7501 0)
(-50.8028 49.7406 0)
(-105.926 56.0641 0)
(-151.084 46.8573 0)
(-172.541 32.4572 0)
(-163.044 10.6916 0)
(-155.752 -7.76426 0)
(-126.397 -21.5291 0)
(-88.5722 -20.1625 0)
(-54.7677 -4.07564 0)
(-40.5356 0.582918 0)
(-38.1561 -1.13053 0)
(-34.1566 -0.795137 0)
(-38.9256 3.05108 0)
(-48.264 5.81343 0)
(-36.7491 -2.09059 0)
(109.993 -48.4177 0)
(147.936 -60.1515 0)
(225.681 -66.4743 0)
(249.62 -85.6125 0)
(294.049 -105.205 0)
(348.882 -111.003 0)
(438.029 -67.5281 0)
(493.495 27.7882 0)
(440.762 144.657 0)
(377.395 326.722 0)
(277.757 460.667 0)
(249.838 352.454 0)
(275.582 287.405 0)
(129.016 389.779 0)
(-212.74 317.401 0)
(687.197 -279.631 0)
(858.319 -337.307 0)
(559.454 -126.282 0)
(701.088 10.8858 0)
(333.667 -29.4373 0)
(-426.468 91.7405 0)
(117.059 -21.1051 0)
(-153.533 27.3911 0)
(-534.414 169.986 0)
(-461.575 56.1359 0)
(-728.196 -143.563 0)
(-1547.37 -171.51 0)
(-93.5611 -67.9012 0)
(-955.437 143.008 0)
(578.924 -232.036 0)
(1610.05 -631.826 0)
(1588.96 -570.561 0)
(1518.64 -327.349 0)
(1349.65 -1.87591 0)
(1030.58 156.167 0)
(941.69 192.288 0)
(792.134 196.24 0)
(820.564 60.1509 0)
(751.458 -40.6964 0)
(1078.52 113.664 0)
(847.599 156.348 0)
(336.954 99.0924 0)
(119.122 82.7558 0)
(232.04 160.113 0)
(141.199 193.745 0)
(106.544 156.499 0)
(6.8912 75.1319 0)
(-84.5725 47.9918 0)
(-144.615 82.5642 0)
(-251.285 78.916 0)
(-394.38 27.4289 0)
(-477.663 -19.2958 0)
(-512.792 -47.1124 0)
(-551.832 -63.1978 0)
(-530.471 -67.8752 0)
(-535.552 -71.2607 0)
(-507.453 -77.4092 0)
(-506.625 -76.9903 0)
(-473.597 -73.4525 0)
(-453.101 -71.9828 0)
(-446.209 -66.5629 0)
(-400.747 -64.4802 0)
(-386 -64.9748 0)
(-338.308 -67.0478 0)
(-294.814 -66.6459 0)
(-275.59 -57.9582 0)
(-237.378 -49.907 0)
(-227.384 -44.1302 0)
(-191.985 -39.6815 0)
(-157.293 -35.8247 0)
(-150.997 -30.93 0)
(-120.169 -23.5566 0)
(-103.416 -20.725 0)
(-95.9198 -28.7075 0)
(-71.0685 -37.7484 0)
(-54.9396 -42.1155 0)
(-22.6942 -39.6183 0)
(-3.72929 -32.1779 0)
(28.8337 -18.5898 0)
(40.9711 -7.44625 0)
(53.523 -8.15925 0)
(55.4634 -18.9093 0)
(42.9529 -18.5491 0)
(18.6386 -2.14063 0)
(-28.2181 36.4562 0)
(-94.6751 66.1197 0)
(-161.791 68.4876 0)
(-189.94 53.7896 0)
(-202.001 33.5741 0)
(-181.215 7.30746 0)
(-166.807 -13.9588 0)
(-136.503 -28.8526 0)
(-105.063 -28.3164 0)
(-73.3927 -10.2402 0)
(-56.7707 -2.07935 0)
(-49.0035 -2.21872 0)
(-44.5003 -0.37522 0)
(-53.4644 3.56406 0)
(-51.3209 5.45832 0)
(-38.5713 -2.40438 0)
(114.453 -78.561 0)
(160.674 -79.5174 0)
(228.534 -75.5316 0)
(245.349 -90.4115 0)
(266.727 -116.291 0)
(321.298 -127.948 0)
(390.477 -86.1923 0)
(470.268 27.5357 0)
(468.373 162.229 0)
(389.745 337.222 0)
(314.048 472.699 0)
(324.627 367.846 0)
(388.701 270.012 0)
(220.73 459.531 0)
(172.232 240.652 0)
(883.582 -376.908 0)
(905.539 -317.227 0)
(644.862 -74.9465 0)
(547.338 72.8562 0)
(249.772 63.3447 0)
(-374.919 131.43 0)
(4.72522 -50.185 0)
(-182.538 87.2329 0)
(-461.308 214.253 0)
(-474.149 171.158 0)
(-653.329 84.2896 0)
(-1692.14 -235.354 0)
(-210.093 -142.132 0)
(-342.452 -64.4035 0)
(1043.49 -515.042 0)
(1588.1 -722.843 0)
(1384.75 -543.67 0)
(953.153 -257.638 0)
(917.615 49.7878 0)
(747.214 198.919 0)
(725.689 219.713 0)
(616.692 244.258 0)
(464.374 67.7266 0)
(441.358 -99.4007 0)
(969.345 110.02 0)
(909.29 222.267 0)
(564.685 185.656 0)
(191.946 117.042 0)
(262.377 156.125 0)
(221.911 204.351 0)
(155.881 170.793 0)
(135.122 86.2176 0)
(85.1288 65.0072 0)
(23.7386 105.074 0)
(-64.315 111.096 0)
(-214.385 54.825 0)
(-273.911 3.09875 0)
(-367.399 -37.057 0)
(-391.228 -57.8984 0)
(-435.772 -67.8247 0)
(-428.685 -72.2452 0)
(-446.2 -79.3149 0)
(-425.998 -80.5536 0)
(-432.602 -77.2957 0)
(-403.725 -75.7831 0)
(-411.045 -71.976 0)
(-372.991 -70.8278 0)
(-368.392 -72.7519 0)
(-321.346 -76.5981 0)
(-300.399 -73.9922 0)
(-262.791 -65.4298 0)
(-244.786 -55.6985 0)
(-207.332 -49.2583 0)
(-195.961 -46.9507 0)
(-158.924 -41.0782 0)
(-154.386 -35.7756 0)
(-122.494 -28.9704 0)
(-112.266 -23.9235 0)
(-94.6202 -32.2188 0)
(-83.135 -42.7618 0)
(-58.0437 -47.955 0)
(-42.7262 -45.8943 0)
(-9.45256 -38.7375 0)
(10.9062 -24.4823 0)
(35.7208 -10.476 0)
(43.9936 -10.3797 0)
(45.4465 -16.0372 0)
(28.6229 -13.4652 0)
(-1.99821 7.23679 0)
(-63.4973 52.157 0)
(-142.584 83.7632 0)
(-190.993 80.0079 0)
(-225.056 57.1442 0)
(-217.222 30.6626 0)
(-192.591 1.99813 0)
(-163.153 -20.2994 0)
(-136.36 -36.4675 0)
(-114.595 -35.2662 0)
(-88.9432 -15.7303 0)
(-72.9728 -6.18272 0)
(-56.8966 -3.82742 0)
(-57.1832 0.0937747 0)
(-60.358 3.25468 0)
(-59.9108 3.68757 0)
(-38.71 -3.49636 0)
(113.5 -109.456 0)
(159.957 -99.2577 0)
(230.392 -85.2663 0)
(243.984 -93.2573 0)
(238.711 -122.659 0)
(268.291 -143.659 0)
(333.237 -107.931 0)
(401.734 15.8302 0)
(501.35 169.153 0)
(436.136 338.756 0)
(393.889 480.129 0)
(378.625 371.701 0)
(428.244 269.774 0)
(138.102 493.369 0)
(466.73 162.799 0)
(1068.5 -456.093 0)
(775.886 -261.74 0)
(250.774 4.73385 0)
(374.17 78.4921 0)
(140.68 156.306 0)
(-272.902 228.621 0)
(-255.393 -74.7412 0)
(200.135 76.6642 0)
(-539.609 214.065 0)
(-406.855 215.553 0)
(60.9724 168.978 0)
(-951.617 -361.617 0)
(-501.594 -286.514 0)
(247.772 -320.212 0)
(1300.44 -665.902 0)
(1356.85 -684.781 0)
(639.345 -420.702 0)
(359.732 -214.769 0)
(299.598 65.4326 0)
(337.825 215.744 0)
(164.567 209.632 0)
(335.198 242.107 0)
(404.454 41.3362 0)
(97.5213 -195.384 0)
(717.238 54.8818 0)
(922.41 246.84 0)
(866.486 263.543 0)
(526.284 164.036 0)
(515.332 157.588 0)
(375.26 227.781 0)
(256.498 186.816 0)
(233.343 91.7973 0)
(152.589 72.8758 0)
(159.609 122.73 0)
(93.4177 135.087 0)
(12.8248 85.3907 0)
(-112.934 23.7338 0)
(-175.576 -17.9983 0)
(-263.152 -45.1653 0)
(-302.83 -57.5878 0)
(-354.84 -68.4992 0)
(-353.681 -77.749 0)
(-374.539 -80.5239 0)
(-359.738 -79.5956 0)
(-370.42 -77.5203 0)
(-353.87 -74.3008 0)
(-355.747 -75 0)
(-328.304 -78.3385 0)
(-314.003 -83.8924 0)
(-277.85 -81.7227 0)
(-263.271 -70.9827 0)
(-230.152 -63.5227 0)
(-196.134 -56.5517 0)
(-177.896 -51.831 0)
(-169.276 -45.6777 0)
(-144.656 -39.5882 0)
(-133.873 -33.7076 0)
(-110.002 -27.9314 0)
(-102.399 -35.7801 0)
(-83.9495 -46.9223 0)
(-73.1122 -52.8366 0)
(-50.883 -51.4776 0)
(-32.3559 -45.451 0)
(2.36748 -30.3674 0)
(19.7736 -15.329 0)
(36.0995 -10.6397 0)
(32.3832 -13.7172 0)
(15.8667 -7.25309 0)
(-24.1132 18.4699 0)
(-101.526 71.1561 0)
(-172.183 100.557 0)
(-224.706 88.2553 0)
(-231.334 56.4733 0)
(-221.586 24.9747 0)
(-187.856 -5.85669 0)
(-164.113 -26.7956 0)
(-135.512 -41.9092 0)
(-114.711 -40.4313 0)
(-100.93 -20.8235 0)
(-80.0004 -10.5784 0)
(-65.4583 -5.51235 0)
(-66.068 0.602937 0)
(-69.705 2.26662 0)
(-63.4756 0.939936 0)
(-40.378 -4.44706 0)
(105.545 -140.017 0)
(160.289 -120.87 0)
(229.939 -92.2718 0)
(243.643 -91.8956 0)
(228.953 -122.167 0)
(226.516 -151.348 0)
(263.43 -129.627 0)
(319.115 -9.1518 0)
(474.545 161.25 0)
(487.643 338.106 0)
(429.302 494.294 0)
(444.208 388.184 0)
(452.126 265.409 0)
(-30.8811 492.746 0)
(686.495 35.3282 0)
(1064.6 -462.554 0)
(482.301 -191.491 0)
(-55.2473 67.9769 0)
(121.778 64.3103 0)
(-87.0133 224.012 0)
(-493.607 259.496 0)
(-357.98 -114.864 0)
(247.938 89.845 0)
(-615.489 347.445 0)
(-292.525 152.268 0)
(435.109 144.003 0)
(176.95 -112.551 0)
(-278.203 -390.578 0)
(610.345 -552.591 0)
(1203.4 -749.631 0)
(983.43 -592.299 0)
(141.459 -298.516 0)
(371.669 -186.487 0)
(410.934 108.592 0)
(508.652 282.662 0)
(-47.446 130.806 0)
(416.303 237.144 0)
(527.307 62.5324 0)
(142.38 -186.264 0)
(264.174 -78.9445 0)
(719.057 188.459 0)
(897.37 279.511 0)
(798.026 198.665 0)
(816.865 175.065 0)
(705.919 260.202 0)
(526.66 222.31 0)
(353.575 111.474 0)
(219.762 84.6406 0)
(155.67 121.681 0)
(199.075 145.952 0)
(143.528 105.11 0)
(52.885 46.6888 0)
(-23.1932 1.20557 0)
(-140.188 -26.3692 0)
(-223.596 -45.7515 0)
(-254.1 -59.8072 0)
(-297.485 -74.9079 0)
(-294.049 -79.57 0)
(-315.78 -78.2046 0)
(-304.672 -77.4271 0)
(-326.153 -75.0091 0)
(-306.591 -77.3118 0)
(-312.645 -83.1813 0)
(-276.892 -89.4281 0)
(-271.983 -86.2953 0)
(-242.327 -77.5063 0)
(-215.844 -71.0625 0)
(-204.392 -61.9537 0)
(-187.191 -55.2549 0)
(-160.286 -49.5911 0)
(-150.893 -43.7646 0)
(-137.593 -38.0827 0)
(-116.296 -31.9242 0)
(-100.125 -38.8834 0)
(-94.1182 -50.197 0)
(-80.4648 -56.3006 0)
(-77.1889 -56.3365 0)
(-45.8363 -52.1941 0)
(-20.4523 -36.7462 0)
(3.35239 -19.7727 0)
(22.645 -12.7169 0)
(19.6919 -10.1044 0)
(-4.22162 0.267151 0)
(-44.3519 32.9412 0)
(-132.005 91.4495 0)
(-204.945 114.218 0)
(-226.601 94.6128 0)
(-243.942 56.0396 0)
(-210.769 19.3257 0)
(-185.981 -13.2482 0)
(-157.432 -34.4532 0)
(-129.5 -47.8523 0)
(-112.884 -44.088 0)
(-101.357 -25.1632 0)
(-80.226 -14.6774 0)
(-72.0162 -6.49151 0)
(-75.482 1.34409 0)
(-76.6664 0.495034 0)
(-68.5249 -2.77348 0)
(-41.2811 -5.9252 0)
(99.5982 -168.904 0)
(154.581 -140.335 0)
(216.572 -103.238 0)
(241.668 -91.8224 0)
(227.355 -116.586 0)
(210.793 -151.88 0)
(208.157 -137.905 0)
(233.124 -33.7301 0)
(422.875 136.204 0)
(479.07 317.208 0)
(506.336 500.304 0)
(455.372 418.603 0)
(370.665 304.158 0)
(-248.598 474.944 0)
(864.062 -148.109 0)
(961.504 -387.059 0)
(-191.301 -46.0702 0)
(-0.599718 111.419 0)
(-152.371 93.5335 0)
(-364.813 268.24 0)
(-590.346 265.032 0)
(-113.381 -195.733 0)
(93.1213 67.2204 0)
(-85.6532 306.486 0)
(286.156 12.1047 0)
(581.066 66.9676 0)
(605.648 -133.192 0)
(735.297 -351.285 0)
(869.17 -561.301 0)
(776.704 -667.705 0)
(402.074 -409.038 0)
(22.9913 -286.364 0)
(296.92 -251.805 0)
(503.149 66.3055 0)
(634.13 321.777 0)
(305.01 214.644 0)
(584.778 233.746 0)
(772.086 95.4686 0)
(524.558 -55.5756 0)
(129.917 -84.6097 0)
(513.453 99.8519 0)
(720.894 229.94 0)
(860.086 193.831 0)
(823.748 178.911 0)
(814.667 290.156 0)
(673.023 273.789 0)
(444.749 156.757 0)
(231.178 122.25 0)
(162.921 123.884 0)
(234.035 145.155 0)
(253.551 114.786 0)
(191.074 71.7991 0)
(74.9159 26.8014 0)
(-18.6033 -2.79535 0)
(-95.134 -25.4226 0)
(-183.694 -49.8227 0)
(-207.178 -67.7649 0)
(-246.161 -76.2584 0)
(-243.315 -76.1709 0)
(-267.492 -74.0801 0)
(-291.171 -74.1793 0)
(-270.462 -78.4916 0)
(-283.246 -86.5778 0)
(-249.172 -93.8639 0)
(-255.948 -90.715 0)
(-224.143 -83.4311 0)
(-216.277 -75.2721 0)
(-206.227 -65.8055 0)
(-175.941 -60.7856 0)
(-165.573 -54.2269 0)
(-150.718 -46.8694 0)
(-126.597 -42.1112 0)
(-110.289 -36.3729 0)
(-105.666 -41.1233 0)
(-97.0592 -51.612 0)
(-99.1979 -57.7023 0)
(-100.057 -59.6271 0)
(-78.2524 -59.7174 0)
(-37.1933 -43.6647 0)
(-14.9556 -25.0761 0)
(6.72112 -14.1061 0)
(-0.537167 -6.36428 0)
(-18.2681 8.82918 0)
(-69.6475 49.5316 0)
(-164.421 109.8 0)
(-216.521 125.712 0)
(-232.761 99.1658 0)
(-244.691 54.2813 0)
(-208.814 12.1864 0)
(-175.809 -20.0842 0)
(-153.016 -41.0107 0)
(-119.736 -53.6106 0)
(-105.998 -47.1632 0)
(-97.3501 -28.3165 0)
(-83.5436 -17.9267 0)
(-79.5443 -6.35887 0)
(-83.9531 2.07511 0)
(-82.1691 -1.90888 0)
(-68.8184 -7.17157 0)
(-41.7698 -7.22592 0)
(97.2409 -195.531 0)
(131.199 -160.583 0)
(193.949 -112.611 0)
(219.622 -95.2759 0)
(234.595 -113.383 0)
(205.125 -143.801 0)
(188.24 -139.752 0)
(184.603 -53.2748 0)
(363.991 105.43 0)
(411.344 295.06 0)
(488.635 506.708 0)
(486.066 461.717 0)
(432.926 353.605 0)
(-280.116 432.297 0)
(974.094 -273.798 0)
(800.839 -232.75 0)
(-531.923 75.2494 0)
(-6.26034 112.632 0)
(-301.375 146.423 0)
(-632.726 317.655 0)
(-825.289 226.86 0)
(241.4 -264.138 0)
(-217.62 89.9452 0)
(-279.498 283.093 0)
(411.411 -23.8397 0)
(864.36 3.2051 0)
(923.572 -168.776 0)
(752.168 -463.23 0)
(596.489 -625.735 0)
(308.695 -709.356 0)
(112.192 -372.451 0)
(27.1657 -320.08 0)
(187.64 -312.435 0)
(517.741 42.9485 0)
(794.211 334.887 0)
(252.996 137.789 0)
(388.725 118.156 0)
(1051.11 131.162 0)
(278.961 -34.3246 0)
(94.5048 -68.2686 0)
(27.5454 -5.3795 0)
(322.002 175.039 0)
(698.641 160.642 0)
(644.59 181.969 0)
(717.918 298.726 0)
(757.165 311.04 0)
(520.287 207.304 0)
(330.43 161.03 0)
(170.359 126.768 0)
(287.615 128.72 0)
(298.471 116.856 0)
(241.858 87.7476 0)
(179.986 53.3071 0)
(70.3154 21.5992 0)
(-23.0299 -5.98912 0)
(-85.4176 -32.4863 0)
(-155.033 -59.6183 0)
(-171.011 -70.9354 0)
(-204.462 -71.7303 0)
(-229.327 -68.9475 0)
(-228.072 -71.4752 0)
(-246.342 -79.1827 0)
(-231.834 -88.7272 0)
(-232.808 -95.6104 0)
(-218.36 -92.9767 0)
(-214.256 -85.98 0)
(-209.13 -77.742 0)
(-187.012 -70.3121 0)
(-174.615 -64.7145 0)
(-164.019 -58.1265 0)
(-136.84 -51.8674 0)
(-125.845 -46.3287 0)
(-112.853 -38.5378 0)
(-102.521 -42.4556 0)
(-107.509 -51.3505 0)
(-117.474 -55.9205 0)
(-142.843 -61.9857 0)
(-108.748 -67.9061 0)
(-68.919 -52.0864 0)
(-32.155 -30.9303 0)
(-16.853 -15.9001 0)
(-16.295 -2.76093 0)
(-40.7427 17.2182 0)
(-95.7984 66.5115 0)
(-186.184 129.453 0)
(-237.288 135.659 0)
(-246.723 101.47 0)
(-233.043 48.3966 0)
(-194.367 3.84672 0)
(-168.179 -27.0623 0)
(-147.647 -48.4759 0)
(-114.224 -58.966 0)
(-98.3237 -49.6863 0)
(-95.4396 -30.5172 0)
(-86.0814 -19.7053 0)
(-87.7365 -5.77496 0)
(-89.1496 2.09684 0)
(-82.0565 -5.4718 0)
(-69.798 -12.1932 0)
(-39.4213 -8.8361 0)
(86.0236 -220.854 0)
(118.498 -177.828 0)
(183.481 -119.927 0)
(210.933 -97.9617 0)
(213.36 -112.916 0)
(206.93 -139.51 0)
(161.237 -136.615 0)
(149.532 -67.6536 0)
(301.164 87.5529 0)
(351.991 258.778 0)
(427.773 495.1 0)
(545.532 474.063 0)
(583.098 414.629 0)
(8.28892 386.602 0)
(1059.72 -345.489 0)
(491.878 -46.722 0)
(-332.982 122.478 0)
(-107.759 135.215 0)
(-497.442 262.443 0)
(-721.784 348.6 0)
(-503.8 76.5356 0)
(629.855 -295.09 0)
(-235.596 102.507 0)
(197.915 126.454 0)
(799.976 -181.869 0)
(931.99 -66.1103 0)
(1092.19 -143.123 0)
(699.875 -408.123 0)
(226.269 -520.181 0)
(145.295 -507.607 0)
(239.134 -389.343 0)
(184.537 -308.691 0)
(-55.5971 -374.098 0)
(193.293 -64.0013 0)
(759.273 336.732 0)
(318.628 224.475 0)
(380.986 99.9085 0)
(578.147 71.8816 0)
(-165.84 9.52413 0)
(62.6751 3.06798 0)
(-108.17 16.5931 0)
(295.387 119.065 0)
(441.445 140.405 0)
(246.367 170.147 0)
(441.842 272.749 0)
(743.549 326.641 0)
(579.35 255.301 0)
(382.054 195.953 0)
(257.498 139.127 0)
(328.858 112.26 0)
(334.142 120.041 0)
(304.735 103.617 0)
(225.285 69.8319 0)
(167.31 45.4094 0)
(87.1174 18.8202 0)
(-24.3884 -15.1925 0)
(-72.5672 -47.4385 0)
(-131.346 -62.1502 0)
(-165.46 -65.0789 0)
(-168.661 -66.3188 0)
(-193.615 -69.0105 0)
(-194.184 -79.1233 0)
(-191.134 -90.4254 0)
(-187.732 -96.8256 0)
(-200.211 -94.2177 0)
(-185.592 -87.7604 0)
(-180.854 -80.5432 0)
(-178.7 -73.7214 0)
(-157.512 -68.0817 0)
(-154.143 -62.2675 0)
(-135.831 -56.6201 0)
(-115.229 -49.3538 0)
(-110.513 -41.1567 0)
(-105.45 -42.1483 0)
(-115.693 -48.0091 0)
(-144.284 -49.3372 0)
(-187.479 -61.6663 0)
(-154.069 -78.5097 0)
(-97.0803 -62.4017 0)
(-61.4337 -38.1436 0)
(-35.7161 -17.9383 0)
(-43.3224 0.227651 0)
(-56.7458 26.7509 0)
(-122.993 84.8034 0)
(-207.815 144.792 0)
(-240.654 142.63 0)