/*--------------------------------*- C++ -*----------------------------------*\
| =========                 |                                                 |
| \\      /  F ield         | foam-extend: Open Source CFD                    |
|  \\    /   O peration     | Version:     5.0                                |
|   \\  /    A nd           | Web:         http://www.foam-extend.org         |
|    \\/     M anipulation  |                                                 |
\*---------------------------------------------------------------------------*/
FoamFile
{
    version     2.0;
    format      ascii;
    class       regIOobject;
    location    "0.005/uniform";
    object      profilingInfo;
}
// * * * * * * * * * * * * * * * * * * * * * * * * * * * * * * * * * * * * * //

profilingInfo
(

    {
        id              13;
        parentId        12;
        description     "Foam::Time::writeObject - outputTime";
        calls           1;
        totalTime       0.014627;
        childTime       0;
        onStack         1;
    }

    {
        id              12;
        parentId        1;
        description     "Foam::Time::writeObject";
        calls           1;
        totalTime       0.014664;
        childTime       0.014627;
        onStack         1;
    }

    {
        id              1;
        description     "application::main";
        calls           1;
        totalTime       0.079549;
        childTime       0.045296;
        onStack         1;
    }

    {
        id              5;
        parentId        1;
        description     "functionObjectList::read";
        calls           1;
        totalTime       3e-06;
        childTime       0;
        onStack         0;
    }

    {
        id              9;
        parentId        1;
        description     "fvMatrix::solve_U";
        calls           2;
        totalTime       0.00171;
        childTime       0.001576;
        onStack         0;
    }

    {
        id              6;
        parentId        1;
        description     "fvMatrix::solve_Voltage";
        calls           2;
        totalTime       0.001224;
        childTime       0.001166;
        onStack         0;
    }

    {
        id              2;
        parentId        1;
        description     "fvMatrix::solve_pd";
        calls           5;
        totalTime       0.027695;
        childTime       0.027295;
        onStack         0;
    }

    {
        id              10;
        parentId        9;
        description     "lduMatrix::solver_Ux";
        calls           2;
        totalTime       0.000833;
        childTime       0;
        onStack         0;
    }

    {
        id              11;
        parentId        9;
        description     "lduMatrix::solver_Uy";
        calls           2;
        totalTime       0.000743;
        childTime       0;
        onStack         0;
    }

    {
        id              7;
        parentId        6;
        description     "lduMatrix::solver_Voltage";
        calls           2;
        totalTime       0.001166;
        childTime       1.1e-05;
        onStack         0;
    }

    {
        id              3;
        parentId        2;
        description     "lduMatrix::solver_pd";
        calls           5;
        totalTime       0.027295;
        childTime       0.000334;
        onStack         0;
    }

    {
        id              4;
        parentId        3;
        description     "lduMatrix::solver_topLevelCorr";
        calls           100;
        totalTime       0.000334;
        childTime       0;
        onStack         0;
    }

    {
        id              8;
        parentId        7;
        description     "lduMatrix::solver_topLevelCorr";
        calls           2;
        totalTime       1.1e-05;
        childTime       0;
        onStack         0;
    }
);


// ************************************************************************* //
