/*--------------------------------*- C++ -*----------------------------------*\
| =========                 |                                                 |
| \\      /  F ield         | foam-extend: Open Source CFD                    |
|  \\    /   O peration     | Version:     5.0                                |
|   \\  /    A nd           | Web:         http://www.foam-extend.org         |
|    \\/     M anipulation  |                                                 |
\*---------------------------------------------------------------------------*/
FoamFile
{
    version     2.0;
    format      ascii;
    class       polyBoundaryMesh;
    location    "constant/polyMesh";
    object      boundary;
}
// * * * * * * * * * * * * * * * * * * * * * * * * * * * * * * * * * * * * * //

4
(
    liquidToSteelInterface
    {
        type            regionCouple;
        nFaces          7800;
        startFace       186000;
        shadowRegion    solid;
        shadowPatch     steelInterface;
        zone            liquidToSteelInterfaceZone;
        attached        off;
        master          on;
        isWall          on;
        bridgeOverlap   off;
    }
    liquidToLithiumInterface
    {
        type            regionCouple;
        nFaces          2000;
        startFace       193800;
        shadowRegion    solid;
        shadowPatch     lithiumInterface;
        zone            liquidToLithiumInterfaceZone;
        attached        off;
        master          on;
        isWall          on;
        bridgeOverlap   off;
    }
    topSurface
    {
        type            patch;
        nFaces          1600;
        startFace       195800;
    }
    defaultFaces
    {
        type            empty;
        nFaces          600;
        startFace       197400;
    }
)


// ************************************************************************* //
