/*--------------------------------*- C++ -*----------------------------------*\
| =========                 |                                                 |
| \\      /  F ield         | foam-extend: Open Source CFD                    |
|  \\    /   O peration     | Version:     5.0                                |
|   \\  /    A nd           | Web:         http://www.foam-extend.org         |
|    \\/     M anipulation  |                                                 |
\*---------------------------------------------------------------------------*/
FoamFile
{
    version     2.0;
    format      ascii;
    class       volVectorField;
    location    "0.085";
    object      bodyForce;
}
// * * * * * * * * * * * * * * * * * * * * * * * * * * * * * * * * * * * * * //

dimensions      [0 1 -2 0 0 0 0];

internalField   nonuniform List<vector> 
4000
(
(-1373.98 0 0)
(-5553.06 0 0)
(-13680.6 0 0)
(-22918 0 0)
(-42538 0 0)
(-54876.3 0 0)
(-58519.5 0 0)
(-74678 0 0)
(-106774 0 0)
(-136472 0 0)
(-172068 0 0)
(-221916 0 0)
(-222811 0 0)
(-168545 0 0)
(-102767 0 0)
(-57552.9 0 0)
(-84819.3 0 0)
(-85002.3 0 0)
(-105699 0 0)
(-112333 0 0)
(-134847 0 0)
(-165265 0 0)
(-195225 0 0)
(-178828 0 0)
(-200952 0 0)
(-266736 0 0)
(-364728 0 0)
(-405534 0 0)
(-356981 0 0)
(-302724 0 0)
(-308279 0 0)
(-343294 0 0)
(-340536 0 0)
(-277434 0 0)
(-274571 0 0)
(-304989 0 0)
(-302169 0 0)
(-304740 0 0)
(-295268 0 0)
(-289872 0 0)
(-267567 0 0)
(-210227 0 0)
(-168516 0 0)
(-108020 0 0)
(-87110.6 0 0)
(-104395 0 0)
(-101453 0 0)
(-93092.7 0 0)
(-74292.9 0 0)
(-83286.5 0 0)
(-76266.7 0 0)
(-78358.6 0 0)
(-64703.9 0 0)
(-75511.1 0 0)
(-72355.1 0 0)
(-59683.8 0 0)
(-43065.7 0 0)
(-48121.4 0 0)
(-37364.9 0 0)
(-37402.8 0 0)
(-28986.4 0 0)
(-24799.4 0 0)
(-27516.6 0 0)
(-24748.1 0 0)
(-25039 0 0)
(-20733.3 0 0)
(-16009.9 0 0)
(-13675.2 0 0)
(-12280.4 0 0)
(-8975.34 0 0)
(-7110.49 0 0)
(-5900.32 0 0)
(-3069.96 0 0)
(-1978.74 0 0)
(-1574.29 0 0)
(-788.744 0 0)
(341.626 -0 0)
(-34.6626 0 0)
(2158.45 -0 0)
(2262.55 -0 0)
(7343.26 -0 0)
(10271.3 -0 0)
(16515.5 -0 0)
(15377.8 -0 0)
(19726.6 -0 0)
(16530.5 -0 0)
(12698.8 -0 0)
(17744.9 -0 0)
(11188.2 -0 0)
(4359.61 -0 0)
(6644.42 -0 0)
(-4337.46 0 0)
(-1577.91 0 0)
(-5322.37 0 0)
(-1833.68 0 0)
(-2738.52 0 0)
(-3217.31 0 0)
(-3758.85 0 0)
(-8745.68 0 0)
(-10557.6 0 0)
(-3254.62 0 0)
(-8773.65 0 0)
(-15062.2 0 0)
(-20613.7 0 0)
(-17530.7 0 0)
(-19220.6 0 0)
(-32183.4 0 0)
(-33692.9 0 0)
(-46282.4 0 0)
(-69897.5 0 0)
(-74060.2 0 0)
(-87752 0 0)
(-35433.7 0 0)
(82370.9 -0 0)
(124463 -0 0)
(99246.7 -0 0)
(111429 -0 0)
(71231.6 -0 0)
(60201.4 -0 0)
(21825.6 -0 0)
(-14498.5 0 0)
(-62866.2 0 0)
(-92616.6 0 0)
(-88206.4 0 0)
(-103684 0 0)
(-191129 0 0)
(-257705 0 0)
(-233133 0 0)
(-168743 0 0)
(-164097 0 0)
(-147437 0 0)
(-199734 0 0)
(-255025 0 0)
(-260040 0 0)
(-212959 0 0)
(-236056 0 0)
(-282487 0 0)
(-253364 0 0)
(-242820 0 0)
(-219728 0 0)
(-215400 0 0)
(-188777 0 0)
(-156975 0 0)
(-128664 0 0)
(-93398.4 0 0)
(-81853.2 0 0)
(-109008 0 0)
(-91658.7 0 0)
(-79395.5 0 0)
(-71016.4 0 0)
(-88748.7 0 0)
(-79156.2 0 0)
(-83008.8 0 0)
(-71699.4 0 0)
(-77682 0 0)
(-70998.9 0 0)
(-79662.5 0 0)
(-64216.9 0 0)
(-68880 0 0)
(-57216.5 0 0)
(-64810.7 0 0)
(-58490.4 0 0)
(-44613.2 0 0)
(-52643 0 0)
(-39720.4 0 0)
(-41492.8 0 0)
(-25023.9 0 0)
(-22429.7 0 0)
(-24185.2 0 0)
(-14565.6 0 0)
(-12353 0 0)
(-11770.7 0 0)
(-5126.9 0 0)
(-5525.09 0 0)
(-4379.3 0 0)
(-2272.87 0 0)
(279.488 -0 0)
(-4886.65 0 0)
(1470.86 -0 0)
(-658.613 0 0)
(11947.5 -0 0)
(12341.4 -0 0)
(30278.6 -0 0)
(31762.3 -0 0)
(26196.7 -0 0)
(34201.1 -0 0)
(23132.3 -0 0)
(28638.1 -0 0)
(16449.8 -0 0)
(4703.17 -0 0)
(9538.07 -0 0)
(-10587.2 0 0)
(-6690.62 0 0)
(-11534.2 0 0)
(-4764.78 0 0)
(-7543 0 0)
(-9481.37 0 0)
(-7746.17 0 0)
(-16179.6 0 0)
(-16099.3 0 0)
(-2320.18 0 0)
(-322.73 0 0)
(1354.93 -0 0)
(4243.75 -0 0)
(16143.3 -0 0)
(17416.4 -0 0)
(32392.5 -0 0)
(41071.8 -0 0)
(74204.8 -0 0)
(85082.8 -0 0)
(70300.1 -0 0)
(105082 -0 0)
(159761 -0 0)
(213576 -0 0)
(199560 -0 0)
(194803 -0 0)
(147986 -0 0)
(124020 -0 0)
(91449.9 -0 0)
(86937.9 -0 0)
(72340.2 -0 0)
(62038.2 -0 0)
(59315.9 -0 0)
(15749.3 -0 0)
(27565.6 -0 0)
(-8268.52 0 0)
(-29367.7 0 0)
(-5333.69 0 0)
(84992.4 -0 0)
(59943.5 -0 0)
(-6808.85 0 0)
(-56837 0 0)
(-137905 0 0)
(-164044 0 0)
(-124943 0 0)
(-151762 0 0)
(-168225 0 0)
(-162384 0 0)
(-129925 0 0)
(-129711 0 0)
(-151552 0 0)
(-139887 0 0)
(-121507 0 0)
(-93834.1 0 0)
(-82894.4 0 0)
(-63829.5 0 0)
(-88693.7 0 0)
(-100496 0 0)
(-87988.3 0 0)
(-76498.3 0 0)
(-74028.5 0 0)
(-87125.3 0 0)
(-72405.8 0 0)
(-73671.3 0 0)
(-62215.5 0 0)
(-65811 0 0)
(-79136.4 0 0)
(-63758.9 0 0)
(-68600.3 0 0)
(-57042.1 0 0)
(-64020.7 0 0)
(-54685.1 0 0)
(-62676.1 0 0)
(-55434.5 0 0)
(-39561.1 0 0)
(-46575.9 0 0)
(-31327 0 0)
(-32891.2 0 0)
(-21704.6 0 0)
(-19105.5 0 0)
(-22404.4 0 0)
(-10804.8 0 0)
(-11093.1 0 0)
(-9350.6 0 0)
(-8013.19 0 0)
(-10242.2 0 0)
(-6732.24 0 0)
(-2949.41 0 0)
(-10955.8 0 0)
(731.873 -0 0)
(1677.14 -0 0)
(7616.82 -0 0)
(26685.6 -0 0)
(16841.3 -0 0)
(29209.7 -0 0)
(22636.9 -0 0)
(27783.8 -0 0)
(17234.7 -0 0)
(19883.2 -0 0)
(3828.36 -0 0)
(5024.63 -0 0)
(-15162.6 0 0)
(-12753.1 0 0)
(-10645.1 0 0)
(-14574.2 0 0)
(-4705.93 0 0)
(-5036.17 0 0)
(-13493.7 0 0)
(-12730.8 0 0)
(-23164.1 0 0)
(-1852.56 0 0)
(10201.9 -0 0)
(14829.3 -0 0)
(26657.1 -0 0)
(34200.1 -0 0)
(54320 -0 0)
(70214.2 -0 0)
(107606 -0 0)
(139765 -0 0)
(171849 -0 0)
(163725 -0 0)
(184734 -0 0)
(239882 -0 0)
(235988 -0 0)
(177423 -0 0)
(172068 -0 0)
(91590.9 -0 0)
(76304.6 -0 0)
(48791.5 -0 0)
(51142.7 -0 0)
(95745 -0 0)
(144649 -0 0)
(171859 -0 0)
(158705 -0 0)
(164203 -0 0)
(164414 -0 0)
(109957 -0 0)
(152160 -0 0)
(208850 -0 0)
(165108 -0 0)
(80256.5 -0 0)
(81891.1 -0 0)
(19170.3 -0 0)
(-36100.1 0 0)
(888.636 -0 0)
(18474.4 -0 0)
(-32885.8 0 0)
(-15857.7 0 0)
(10595.8 -0 0)
(-45766.8 0 0)
(-136104 0 0)
(-121861 0 0)
(-89091.1 0 0)
(-76276.2 0 0)
(-64597.3 0 0)
(-62678.9 0 0)
(-60809.4 0 0)
(-101570 0 0)
(-75946.8 0 0)
(-52302.7 0 0)
(-74184 0 0)
(-77845.6 0 0)
(-83886.4 0 0)
(-71850 0 0)
(-74285.8 0 0)
(-68034.9 0 0)
(-73640.3 0 0)
(-61789.7 0 0)
(-65149.4 0 0)
(-54381.4 0 0)
(-59324.2 0 0)
(-50887.4 0 0)
(-60198.1 0 0)
(-45015.5 0 0)
(-40489.7 0 0)
(-46628.2 0 0)
(-36007.5 0 0)
(-32513.8 0 0)
(-25444.5 0 0)
(-30481.1 0 0)
(-24103.7 0 0)
(-12533.8 0 0)
(-11093.4 0 0)
(-13137.1 0 0)
(-12816.5 0 0)
(-11499.5 0 0)
(-15611.9 0 0)
(-8225.6 0 0)
(-14705.1 0 0)
(-2279.48 0 0)
(-1431.38 0 0)
(12209.9 -0 0)
(23738.8 -0 0)
(16005.4 -0 0)
(24595.9 -0 0)
(30249.6 -0 0)
(21192.1 -0 0)
(23306 -0 0)
(12787.4 -0 0)
(11167.4 -0 0)
(-3122.34 0 0)
(-10199.8 0 0)
(-22598.3 0 0)
(-14506.6 0 0)
(-17840.8 0 0)
(-6632.92 0 0)
(-10919.9 0 0)
(-9758.07 0 0)
(-15502.3 0 0)
(-19250.6 0 0)
(527.229 -0 0)
(17389.6 -0 0)
(28609 -0 0)
(36430.3 -0 0)
(56254.3 -0 0)
(75083.7 -0 0)
(109756 -0 0)
(143288 -0 0)
(192135 -0 0)
(191573 -0 0)
(187698 -0 0)
(208405 -0 0)
(243145 -0 0)
(227007 -0 0)
(120569 -0 0)
(77256 -0 0)
(-10723.8 0 0)
(-91763.3 0 0)
(-90608.8 0 0)
(-16727.6 0 0)
(114756 -0 0)
(195833 -0 0)
(225255 -0 0)
(234139 -0 0)
(217891 -0 0)
(233959 -0 0)
(250632 -0 0)
(280241 -0 0)
(248697 -0 0)
(133835 -0 0)
(96891.1 -0 0)
(59606.5 -0 0)
(126415 -0 0)
(109856 -0 0)
(147512 -0 0)
(127562 -0 0)
(125518 -0 0)
(111738 -0 0)
(59281.7 -0 0)
(-1681.5 0 0)
(-90531.5 0 0)
(-58281.5 0 0)
(-92449.8 0 0)
(-62479.4 0 0)
(-68131.3 0 0)
(-67652.7 0 0)
(-59476.8 0 0)
(-77858.7 0 0)
(-66761.2 0 0)
(-59361.7 0 0)
(-54397.3 0 0)
(-77930.8 0 0)
(-72916.7 0 0)
(-81758.5 0 0)
(-68667.3 0 0)
(-74766.2 0 0)
(-64818.3 0 0)
(-68593.7 0 0)
(-58385.4 0 0)
(-60824.4 0 0)
(-52169.4 0 0)
(-55714.8 0 0)
(-48704.1 0 0)
(-52512.6 0 0)
(-44030 0 0)
(-41421.3 0 0)
(-47443.8 0 0)
(-35604.2 0 0)
(-37078.6 0 0)
(-31604.9 0 0)
(-19156.5 0 0)
(-15123.2 0 0)
(-16587.3 0 0)
(-12612.7 0 0)
(-14868.7 0 0)
(-15992.5 0 0)
(-13893.1 0 0)
(-16410.2 0 0)
(-9892.93 0 0)
(-10022.1 0 0)
(2963.89 -0 0)
(6821.77 -0 0)
(17660.7 -0 0)
(27300.5 -0 0)
(25817.5 -0 0)
(23716.3 -0 0)
(22540.2 -0 0)
(16290.9 -0 0)
(10476.1 -0 0)
(5538.52 -0 0)
(-4589.67 0 0)
(-16974.3 0 0)
(-18239.1 0 0)
(-20556.3 0 0)
(-13666.7 0 0)
(-12102.6 0 0)
(-7727.22 0 0)
(-15082.6 0 0)
(-15094.5 0 0)
(-24597.7 0 0)
(2702.31 -0 0)
(20220.6 -0 0)
(36617.6 -0 0)
(48954.5 -0 0)
(67710.3 -0 0)
(100204 -0 0)
(129401 -0 0)
(174601 -0 0)
(192410 -0 0)
(192395 -0 0)
(186400 -0 0)
(194396 -0 0)
(236583 -0 0)
(183110 -0 0)
(77628.6 -0 0)
(-59643.2 0 0)
(-231843 0 0)
(-384949 0 0)
(-226518 0 0)
(23415.8 -0 0)
(167173 -0 0)
(212485 -0 0)
(186256 -0 0)
(185611 -0 0)
(204893 -0 0)
(176603 -0 0)
(242057 -0 0)
(296626 -0 0)
(203815 -0 0)
(100453 -0 0)
(123386 -0 0)
(52308.6 -0 0)
(123369 -0 0)
(216475 -0 0)
(227663 -0 0)
(165869 -0 0)
(168302 -0 0)
(207021 -0 0)
(148092 -0 0)
(-4403.67 0 0)
(9248.51 -0 0)
(-3469.12 0 0)
(-74280.3 0 0)
(-76287.6 0 0)
(-95067.7 0 0)
(-83898.8 0 0)
(-82661.9 0 0)
(-88024 0 0)
(-85463.7 0 0)
(-72783.7 0 0)
(-54667.6 0 0)
(-68224.4 0 0)
(-65678.2 0 0)
(-77977.4 0 0)
(-69232.2 0 0)
(-74741 0 0)
(-71490.6 0 0)
(-61694.1 0 0)
(-66103.6 0 0)
(-55809.6 0 0)
(-57688.9 0 0)
(-50121.4 0 0)
(-53460 0 0)
(-46442.8 0 0)
(-50515.8 0 0)
(-41093.9 0 0)
(-51523.1 0 0)
(-43208.7 0 0)
(-36529.5 0 0)
(-27845.9 0 0)
(-20520.2 0 0)
(-15170.6 0 0)
(-15570.7 0 0)
(-15976.6 0 0)
(-16143 0 0)
(-16004.1 0 0)
(-17890.8 0 0)
(-13506.4 0 0)
(-15201.8 0 0)
(-4918.88 0 0)
(-2815.32 0 0)
(12322.8 -0 0)
(12448.5 -0 0)
(28839.7 -0 0)
(26043.5 -0 0)
(18850.1 -0 0)
(20146 -0 0)
(10676.5 -0 0)
(4354.34 -0 0)
(-3159.02 0 0)
(-9675.4 0 0)
(-19814.4 0 0)
(-17880.1 0 0)
(-15446.6 0 0)
(-14565.1 0 0)
(-8373.9 0 0)
(-11469.5 0 0)
(-11410 0 0)
(-19746.2 0 0)
(-21495 0 0)
(6759.83 -0 0)
(21357.3 -0 0)
(37583.8 -0 0)
(53848.9 -0 0)
(83166.8 -0 0)
(111951 -0 0)
(148505 -0 0)
(174042 -0 0)
(166386 -0 0)
(160542 -0 0)
(157924 -0 0)
(166748 -0 0)
(212003 -0 0)
(124652 -0 0)
(38677.2 -0 0)
(-63958 0 0)
(-256734 0 0)
(-430791 0 0)
(-135503 0 0)
(52975.7 -0 0)
(128490 -0 0)
(56455.5 -0 0)
(-15863.3 0 0)
(-98133.9 0 0)
(-127945 0 0)
(2100.58 -0 0)
(132349 -0 0)
(157521 -0 0)
(76750.3 -0 0)
(24682.8 -0 0)
(49384.3 -0 0)
(-160747 0 0)
(-42164.1 0 0)
(120048 -0 0)
(142348 -0 0)
(82861.4 -0 0)
(220295 -0 0)
(217945 -0 0)
(141567 -0 0)
(39409.1 -0 0)
(44585.7 -0 0)
(44544.4 -0 0)
(-55259.7 0 0)
(-112237 0 0)
(-114793 0 0)
(-128224 0 0)
(-95855.3 0 0)
(-109932 0 0)
(-132217 0 0)
(-89201.6 0 0)
(-82588 0 0)
(-67115 0 0)
(-53266.4 0 0)
(-64183.2 0 0)
(-71058.5 0 0)
(-64309.1 0 0)
(-69478.7 0 0)
(-62274.6 0 0)
(-65211.1 0 0)
(-62935.7 0 0)
(-52418 0 0)
(-54245.3 0 0)
(-48486.6 0 0)
(-48835.8 0 0)
(-41879.8 0 0)
(-43861.3 0 0)
(-45939 0 0)
(-38672.3 0 0)
(-29209.8 0 0)
(-19567.9 0 0)
(-18686 0 0)
(-21529.7 0 0)
(-21210.2 0 0)
(-15051.8 0 0)
(-17035.1 0 0)
(-18022.4 0 0)
(-16408 0 0)
(-17053 0 0)
(-10497.6 0 0)
(-8774.16 0 0)
(2163.58 -0 0)
(13867.2 -0 0)
(16423 -0 0)
(21592.9 -0 0)
(16752.6 -0 0)
(16868.9 -0 0)
(9552.97 -0 0)
(8045.21 -0 0)
(-8529.85 0 0)
(-15230.3 0 0)
(-11528.3 0 0)
(-20251.4 0 0)
(-17059.3 0 0)
(-15275.5 0 0)
(-9623.45 0 0)
(-9760.59 0 0)
(-7865.94 0 0)
(-14011 0 0)
(-18866.2 0 0)
(-19026.9 0 0)
(9891.69 -0 0)
(24123.1 -0 0)
(39439.9 -0 0)
(61411.3 -0 0)
(88953.4 -0 0)
(123259 -0 0)
(139195 -0 0)
(141611 -0 0)
(130394 -0 0)
(130064 -0 0)
(112292 -0 0)
(136428 -0 0)
(164433 -0 0)
(68214.6 -0 0)
(-9401.9 0 0)
(-198708 0 0)
(-305808 0 0)
(-345406 0 0)
(-184351 0 0)
(25020.3 -0 0)
(-57538.1 0 0)
(-59664.4 0 0)
(21163.2 -0 0)
(-19160.3 0 0)
(-42804.8 0 0)
(-69114.2 0 0)
(-126754 0 0)
(-56769.8 0 0)
(-13161.1 0 0)
(-145299 0 0)
(58611.1 -0 0)
(-364956 0 0)
(-51475.8 0 0)
(30109.6 -0 0)
(15976.7 -0 0)
(-40018.5 0 0)
(181272 -0 0)
(131954 -0 0)
(57836.1 -0 0)
(48231.4 -0 0)
(36238.5 -0 0)
(42644.9 -0 0)
(-23940.9 0 0)
(-114348 0 0)
(-126383 0 0)
(-159212 0 0)
(-110730 0 0)
(-117834 0 0)
(-169858 0 0)
(-131026 0 0)
(-109312 0 0)
(-69762.7 0 0)
(-63223.5 0 0)
(-75563.7 0 0)
(-66450.9 0 0)
(-68054.2 0 0)
(-62894.7 0 0)
(-66016 0 0)
(-55279.6 0 0)
(-50482.2 0 0)
(-58882.5 0 0)
(-50861.3 0 0)
(-54345 0 0)
(-43529.9 0 0)
(-41811.2 0 0)
(-47050.2 0 0)
(-34624.2 0 0)
(-31688.3 0 0)
(-24094.2 0 0)
(-20557.3 0 0)
(-26270.8 0 0)
(-17337.3 0 0)
(-20445 0 0)
(-17644.5 0 0)
(-16612.5 0 0)
(-18283.3 0 0)
(-18390.2 0 0)
(-14698.9 0 0)
(-13018.6 0 0)
(-3469.87 0 0)
(-1129.6 0 0)
(13198.8 -0 0)
(16382.9 -0 0)
(7772.36 -0 0)
(11582.3 -0 0)
(4428.56 -0 0)
(10442 -0 0)
(-1518.41 0 0)
(-780.096 0 0)
(-16163.1 0 0)
(-19675.7 0 0)
(-15432.2 0 0)
(-16700.3 0 0)
(-13338.3 0 0)
(-8471.33 0 0)
(-7849.94 0 0)
(-9206.99 0 0)
(-13022.8 0 0)
(-18555.1 0 0)
(-12679.7 0 0)
(11208.4 -0 0)
(25648.7 -0 0)
(42455.4 -0 0)
(63134.8 -0 0)
(95014.9 -0 0)
(115286 -0 0)
(119638 -0 0)
(112518 -0 0)
(103101 -0 0)
(96907.6 -0 0)
(72279.1 -0 0)
(97507.1 -0 0)
(116975 -0 0)
(22150.8 -0 0)
(-15927.8 0 0)
(-70991 0 0)
(-178687 0 0)
(-135236 0 0)
(-63764 0 0)
(-14913.4 0 0)
(-72034.8 0 0)
(-110083 0 0)
(-37543.1 0 0)
(53571.8 -0 0)
(35417 -0 0)
(36026.6 -0 0)
(-11334.2 0 0)
(-23126.4 0 0)
(-17179.4 0 0)
(-175159 0 0)
(16116.2 -0 0)
(-117425 0 0)
(-137512 0 0)
(-94338 0 0)
(-78321.2 0 0)
(-80758.9 0 0)
(5307.69 -0 0)
(59342.6 -0 0)
(1211.58 -0 0)
(37606 -0 0)
(51722.2 -0 0)
(51307.7 -0 0)
(23835.9 -0 0)
(-95607.5 0 0)
(-90205.9 0 0)
(-181073 0 0)
(-126090 0 0)
(-106480 0 0)
(-210437 0 0)
(-154588 0 0)
(-136684 0 0)
(-99838.5 0 0)
(-82713.1 0 0)
(-68780 0 0)
(-71622.6 0 0)
(-62455.2 0 0)
(-68287.3 0 0)
(-64018.3 0 0)
(-65402.4 0 0)
(-56812.3 0 0)
(-58635.9 0 0)
(-52160.2 0 0)
(-54990.2 0 0)
(-46922.9 0 0)
(-48045.2 0 0)
(-40218.1 0 0)
(-37518.3 0 0)
(-30890.4 0 0)
(-34834.4 0 0)
(-24457.3 0 0)
(-26890.3 0 0)
(-18323.1 0 0)
(-18433.2 0 0)
(-14879.6 0 0)
(-17073.9 0 0)
(-18136.7 0 0)
(-18297.9 0 0)
(-16630.2 0 0)
(-9893.99 0 0)
(-5072.2 0 0)
(4731.3 -0 0)
(8995.46 -0 0)
(1718.63 -0 0)
(1838.42 -0 0)
(-460.336 0 0)
(2840.03 -0 0)
(4733.25 -0 0)
(9816.26 -0 0)
(4134.96 -0 0)
(-4151.74 0 0)
(-18446.1 0 0)
(-18660.9 0 0)
(-20468.5 0 0)
(-10348.9 0 0)
(-7692.34 0 0)
(-7155.15 0 0)
(-8787.94 0 0)
(-13290 0 0)
(-17065.3 0 0)
(-7991.74 0 0)
(8249.87 -0 0)
(24678.7 -0 0)
(42106.7 -0 0)
(62380 -0 0)
(88958.2 -0 0)
(99911.9 -0 0)
(93092.5 -0 0)
(82382.8 -0 0)
(65639.2 -0 0)
(56942.2 -0 0)
(34792.7 -0 0)
(73259.5 -0 0)
(84621.8 -0 0)
(26283.7 -0 0)
(9383.11 -0 0)
(-68861.4 0 0)
(-155025 0 0)
(17220 -0 0)
(50030.1 -0 0)
(-87803 0 0)
(-245978 0 0)
(-69439.8 0 0)
(63986 -0 0)
(47007.5 -0 0)
(-26035 0 0)
(-37162.6 0 0)
(-9256.99 0 0)
(24640.8 -0 0)
(10285.2 -0 0)
(-107864 0 0)
(-42771.7 0 0)
(-160055 0 0)
(-351837 0 0)
(-139278 0 0)
(-112599 0 0)
(-74466.1 0 0)
(-44631 0 0)
(21602.3 -0 0)
(-64480.9 0 0)
(47490 -0 0)
(74855.7 -0 0)
(47049 -0 0)
(39379.7 -0 0)
(-84715.5 0 0)
(-47024.2 0 0)
(-135564 0 0)
(-166639 0 0)
(-85210.7 0 0)
(-216394 0 0)
(-171372 0 0)
(-158135 0 0)
(-123456 0 0)
(-100252 0 0)
(-78160.6 0 0)
(-72059.4 0 0)
(-63793.4 0 0)
(-62786.3 0 0)
(-68607 0 0)
(-62014.2 0 0)
(-61826.2 0 0)
(-54385.7 0 0)
(-54515.8 0 0)
(-51177.6 0 0)
(-50293.7 0 0)
(-45394.5 0 0)
(-43695.8 0 0)
(-31903.5 0 0)
(-32567 0 0)
(-38190.9 0 0)
(-29597.6 0 0)
(-24393.2 0 0)
(-23315.7 0 0)
(-14283.3 0 0)
(-15454.2 0 0)
(-15423 0 0)
(-18700.2 0 0)
(-17976 0 0)
(-16749.5 0 0)
(-11776.7 0 0)
(-3545.68 0 0)
(1180.62 -0 0)
(-2323.46 0 0)
(-4449.22 0 0)
(-7112.63 0 0)
(3232.91 -0 0)
(-2235.29 0 0)
(2841.76 -0 0)
(-14041.1 0 0)
(-13808.3 0 0)
(-11941.2 0 0)
(-7368.06 0 0)
(-11506.5 0 0)
(-15805.9 0 0)
(-12111.7 0 0)
(-8076.87 0 0)
(-7868.47 0 0)
(-9719.56 0 0)
(-12703.7 0 0)
(-12094 0 0)
(-5256.61 0 0)
(7295.92 -0 0)
(21200.7 -0 0)
(38986.9 -0 0)
(57786 -0 0)
(77303.4 -0 0)
(76493.1 -0 0)
(62972.4 -0 0)
(56015 -0 0)
(52717.1 -0 0)
(56097.6 -0 0)
(35372 -0 0)
(66879.8 -0 0)
(56486.8 -0 0)
(-538.666 0 0)
(1326.95 -0 0)
(-95525.9 0 0)
(-75451.3 0 0)
(169775 -0 0)
(16311.1 -0 0)
(-131884 0 0)
(-152349 0 0)
(-17647.8 0 0)
(38246.1 -0 0)
(-53649.9 0 0)
(-106601 0 0)
(-104001 0 0)
(-26803.8 0 0)
(-10636.2 0 0)
(5868.82 -0 0)
(-95783.9 0 0)
(-61760.6 0 0)
(-241128 0 0)
(-341237 0 0)
(-195601 0 0)
(-217944 0 0)
(-127383 0 0)
(-67860.5 0 0)
(-57897.8 0 0)
(-96722.7 0 0)
(64713.9 -0 0)
(103186 -0 0)
(52293.9 -0 0)
(28829.1 -0 0)
(-53870.5 0 0)
(-28248.1 0 0)
(-74660.3 0 0)
(-152821 0 0)
(-69167.6 0 0)
(-154251 0 0)
(-155237 0 0)
(-147660 0 0)
(-135577 0 0)
(-110948 0 0)
(-81314.1 0 0)
(-62286.6 0 0)
(-53988.1 0 0)
(-62768.4 0 0)
(-63267.5 0 0)
(-65209.1 0 0)
(-59172.8 0 0)
(-58094 0 0)
(-49543.7 0 0)
(-53888.5 0 0)
(-47681.5 0 0)
(-49198.5 0 0)
(-42495.9 0 0)
(-33373.3 0 0)
(-38006.4 0 0)
(-35431.8 0 0)
(-25888.3 0 0)
(-29001.8 0 0)
(-23624.5 0 0)
(-16244.2 0 0)
(-12276.2 0 0)
(-16335.2 0 0)
(-17005.4 0 0)
(-18732.5 0 0)
(-16719.9 0 0)
(-13011.7 0 0)
(-4605.68 0 0)
(-7812.17 0 0)
(-9316.09 0 0)
(-13534.5 0 0)
(-6358.28 0 0)
(-3818.45 0 0)
(214.065 -0 0)
(-13107.4 0 0)
(-16113.6 0 0)
(-9320.8 0 0)
(-1362.74 0 0)
(-11317.2 0 0)
(-14571.1 0 0)
(-8277.82 0 0)
(-13127.2 0 0)
(-8976.62 0 0)
(-7333.85 0 0)
(-11076.3 0 0)
(-8438.92 0 0)
(-13321.2 0 0)
(-7115.83 0 0)
(3320.08 -0 0)
(16121.1 -0 0)
(33430.8 -0 0)
(49043 -0 0)
(59474 -0 0)
(54377.8 -0 0)
(50110.6 -0 0)
(44432.1 -0 0)
(47708.3 -0 0)
(41895.1 -0 0)
(31471.5 -0 0)
(56101.3 -0 0)
(31602.2 -0 0)
(-27991.9 0 0)
(-35097.4 0 0)
(-126306 0 0)
(21691.3 -0 0)
(213201 -0 0)
(25217 -0 0)
(-89540.4 0 0)
(-120642 0 0)
(-73787.9 0 0)
(-43919.1 0 0)
(-192095 0 0)
(-213103 0 0)
(-57809.8 0 0)
(-51149.6 0 0)
(-38914.5 0 0)
(-18454.9 0 0)
(-93718.2 0 0)
(-119768 0 0)
(-83346.8 0 0)
(-179156 0 0)
(-126958 0 0)
(-387058 0 0)
(-256575 0 0)
(-79242.7 0 0)
(-182298 0 0)
(-153977 0 0)
(110130 -0 0)
(123591 -0 0)
(57331.4 -0 0)
(21310.6 -0 0)
(-31404.1 0 0)
(-59296.3 0 0)
(-40575.4 0 0)
(-140352 0 0)
(-43973.4 0 0)
(-83341.6 0 0)
(-97570.2 0 0)
(-109870 0 0)
(-125911 0 0)
(-108859 0 0)
(-90888.6 0 0)
(-53328.2 0 0)
(-55420.8 0 0)
(-56829.2 0 0)
(-65619.1 0 0)
(-59463.7 0 0)
(-63419.9 0 0)
(-58701.2 0 0)
(-47518.4 0 0)
(-50458.6 0 0)
(-48046.1 0 0)
(-47608 0 0)
(-36102.9 0 0)
(-38061.7 0 0)
(-36191.1 0 0)
(-28630.4 0 0)
(-26889.6 0 0)
(-28005.5 0 0)
(-19906.9 0 0)
(-15941.7 0 0)
(-16580.6 0 0)
(-12707.4 0 0)
(-17910.8 0 0)
(-16774.4 0 0)
(-19750.8 0 0)
(-13661.6 0 0)
(-7638.36 0 0)
(-14409.1 0 0)
(-19219.4 0 0)
(-14354.6 0 0)
(-11252 0 0)
(1453.83 -0 0)
(-9438.22 0 0)
(-13769.3 0 0)
(-7792.86 0 0)
(2882.47 -0 0)
(-5882.83 0 0)
(-2407.98 0 0)
(-7892.33 0 0)
(-6499.04 0 0)
(-9727.55 0 0)
(-5749.79 0 0)
(-8748.45 0 0)
(-6347.87 0 0)
(-9589.04 0 0)
(-8280.58 0 0)
(-5135.94 0 0)
(1547.45 -0 0)
(10582.2 -0 0)
(26581.5 -0 0)
(38337.2 -0 0)
(38887.4 -0 0)
(40224.4 -0 0)
(33132.5 -0 0)
(33922.4 -0 0)
(28750.1 -0 0)
(32580 -0 0)
(13744 -0 0)
(39434.7 -0 0)
(-18960.6 0 0)
(-53210.1 0 0)
(-87746.9 0 0)
(-111492 0 0)
(92189.4 -0 0)
(195715 -0 0)
(55968.5 -0 0)
(-51177.7 0 0)
(-102884 0 0)
(-181924 0 0)
(-135843 0 0)
(-106916 0 0)
(-68782.6 0 0)
(37679 -0 0)
(-107451 0 0)
(-61512 0 0)
(-42033.1 0 0)
(-122069 0 0)
(-206590 0 0)
(-72738.7 0 0)
(-104777 0 0)
(-65276.3 0 0)
(-267835 0 0)
(-312252 0 0)
(-84226.2 0 0)
(-287196 0 0)
(-143031 0 0)
(31734.6 -0 0)
(134482 -0 0)
(66881.7 -0 0)
(20851.2 -0 0)
(-35044.6 0 0)
(-72470.1 0 0)
(-26148.3 0 0)
(-158599 0 0)
(-26443.5 0 0)
(-41698.3 0 0)
(-68608.8 0 0)
(-59063.6 0 0)
(-80102.5 0 0)
(-112604 0 0)
(-106672 0 0)
(-64232.8 0 0)
(-47440.2 0 0)
(-56491.9 0 0)
(-61881 0 0)
(-58113.4 0 0)
(-59400.9 0 0)
(-51994.1 0 0)
(-52841.5 0 0)
(-46134.4 0 0)
(-49694.1 0 0)
(-41476.9 0 0)
(-39038.7 0 0)
(-34874.8 0 0)
(-29428.8 0 0)
(-31362.4 0 0)
(-31393.6 0 0)
(-23371.9 0 0)
(-23887.8 0 0)
(-21390.6 0 0)
(-13740 0 0)
(-13188.1 0 0)
(-13894.8 0 0)
(-18234.8 0 0)
(-19592.4 0 0)
(-21233.3 0 0)
(-15418.4 0 0)
(-24406.7 0 0)
(-19514.7 0 0)
(-20280.6 0 0)
(-9904.21 0 0)
(2028.07 -0 0)
(6396.54 -0 0)
(7027.86 -0 0)
(5978.13 -0 0)
(-4991.35 0 0)
(1906.1 -0 0)
(-4453.1 0 0)
(-155.354 0 0)
(-7215.97 0 0)
(-3526.57 0 0)
(-6956.93 0 0)
(-3681.16 0 0)
(-7630.48 0 0)
(-2824.05 0 0)
(-13795.5 0 0)
(-2731.57 0 0)
(-557.208 0 0)
(7159.51 -0 0)
(21084.6 -0 0)
(26758 -0 0)
(29423.6 -0 0)
(21320.2 -0 0)
(22031.8 -0 0)
(12436 -0 0)
(17764.2 -0 0)
(2640.2 -0 0)
(-7689.38 0 0)
(21963 -0 0)
(-60784.2 0 0)
(-106315 0 0)
(-114634 0 0)
(-82093.1 0 0)
(153187 -0 0)
(214662 -0 0)
(64848.3 -0 0)
(-27982.4 0 0)
(-62206.7 0 0)
(-88535.5 0 0)
(-42348.1 0 0)
(-16978.8 0 0)
(38167.1 -0 0)
(95386.2 -0 0)
(-132409 0 0)
(-70549.9 0 0)
(-23900.3 0 0)
(-88940.1 0 0)
(-227557 0 0)
(-22730.5 0 0)
(-101989 0 0)
(-68702.4 0 0)
(-126895 0 0)
(-283242 0 0)
(-207061 0 0)
(-303603 0 0)
(-237192 0 0)
(-70725.8 0 0)
(118667 -0 0)
(80235.7 -0 0)
(8974.28 -0 0)
(-46797.4 0 0)
(-88300.8 0 0)
(-31335.8 0 0)
(-172392 0 0)
(-24678.1 0 0)
(-38384 0 0)
(-65106.8 0 0)
(-41836 0 0)
(-56001.7 0 0)
(-85522.4 0 0)
(-93941.1 0 0)
(-69571.8 0 0)
(-47419.6 0 0)
(-49176.7 0 0)
(-64137.7 0 0)
(-63612.4 0 0)
(-56397.5 0 0)
(-53049.3 0 0)
(-50253.5 0 0)
(-44270.3 0 0)
(-47448.9 0 0)
(-42579.6 0 0)
(-34750.6 0 0)
(-29680.2 0 0)
(-31432.7 0 0)
(-26344.6 0 0)
(-29092.4 0 0)
(-24838.8 0 0)
(-20408.7 0 0)
(-21306.3 0 0)
(-17335.5 0 0)
(-6258.36 0 0)
(-15379.6 0 0)
(-12122.9 0 0)
(-25834.6 0 0)
(-20714.1 0 0)
(-25633 0 0)
(-21156.6 0 0)
(-23322 0 0)
(-10121.8 0 0)
(-4004.6 0 0)
(11489.6 -0 0)
(5692.33 -0 0)
(-10439.2 0 0)
(-5212.78 0 0)
(3020.63 -0 0)
(-1817.02 0 0)
(15.7072 -0 0)
(1805.03 -0 0)
(-1489.84 0 0)
(-4736.81 0 0)
(-1720.21 0 0)
(-6389.54 0 0)
(-728.432 0 0)
(-2846.87 0 0)
(-16272.1 0 0)
(-2391.21 0 0)
(-1276.82 0 0)
(5586.93 -0 0)
(16545.4 -0 0)
(17255.1 -0 0)
(9644.01 -0 0)
(338.701 -0 0)
(2887.97 -0 0)
(406.206 -0 0)
(-11481.7 0 0)
(-13076.1 0 0)
(-16959 0 0)
(1377.42 -0 0)
(-68066.1 0 0)
(-147411 0 0)
(-143619 0 0)
(-44911.4 0 0)
(166756 -0 0)
(181472 -0 0)
(65200.8 -0 0)
(-28945.9 0 0)
(-96331.3 0 0)
(-36442.9 0 0)
(7748.64 -0 0)
(91371.6 -0 0)
(129458 -0 0)
(111608 -0 0)
(-103479 0 0)
(-69513.9 0 0)
(-40495.9 0 0)
(-63138.2 0 0)
(-177209 0 0)
(-23939.2 0 0)
(-87076.1 0 0)
(-53480.8 0 0)
(-118091 0 0)
(-255882 0 0)
(-174088 0 0)
(-229509 0 0)
(-312635 0 0)
(-107893 0 0)
(64385.6 -0 0)
(87619.7 -0 0)
(3981.28 -0 0)
(-75748.4 0 0)
(-95719.6 0 0)
(-23195.9 0 0)
(-111209 0 0)
(-23993.1 0 0)
(-42149.6 0 0)
(-56719.3 0 0)
(-41414.5 0 0)
(-55766.2 0 0)
(-69922 0 0)
(-83190.4 0 0)
(-75676.3 0 0)
(-45438.5 0 0)
(-45380.1 0 0)
(-58840.4 0 0)
(-60290.9 0 0)
(-59065.9 0 0)
(-50628.2 0 0)
(-41933.4 0 0)
(-46446.4 0 0)
(-46660.9 0 0)
(-40366.9 0 0)
(-35946.6 0 0)
(-32199.8 0 0)
(-27933.6 0 0)
(-28256.2 0 0)
(-23993.2 0 0)
(-20143.5 0 0)
(-22002.8 0 0)
(-16480.6 0 0)
(-15458.3 0 0)
(-4698.76 0 0)
(-9637.82 0 0)
(-9228.37 0 0)
(-24450.4 0 0)
(-27175.4 0 0)
(-18032.6 0 0)
(-25867.5 0 0)
(-14646.1 0 0)
(-6573.96 0 0)
(8083.78 -0 0)
(-1950.98 0 0)
(-9305.05 0 0)
(-10638.8 0 0)
(3529.03 -0 0)
(-3268.26 0 0)
(5971.36 -0 0)
(6604.64 -0 0)
(1841.51 -0 0)
(-1619.72 0 0)
(1472.41 -0 0)
(-3633.38 0 0)
(52.2476 -0 0)
(-9331.42 0 0)
(-13017.2 0 0)
(-17903.7 0 0)
(-5138.45 0 0)
(-3874.82 0 0)
(2843.15 -0 0)
(10019.1 -0 0)
(2480.6 -0 0)
(-2926.43 0 0)
(-10820 0 0)
(-23744.6 0 0)
(-33521.1 0 0)
(-28762.3 0 0)
(-41763.2 0 0)
(-27622.9 0 0)
(-16016.1 0 0)
(-95364.5 0 0)
(-149464 0 0)
(-168762 0 0)
(-18283.1 0 0)
(149503 -0 0)
(143049 -0 0)
(56007.5 -0 0)
(7427.57 -0 0)
(40417.2 -0 0)
(47954.5 -0 0)
(157445 -0 0)
(169302 -0 0)
(162889 -0 0)
(130254 -0 0)
(-29465.9 0 0)
(-49822.8 0 0)
(-48263.1 0 0)
(-63519 0 0)
(-124220 0 0)
(-62104.8 0 0)
(-51760.3 0 0)
(10553.9 -0 0)
(-126000 0 0)
(-217956 0 0)
(-156860 0 0)
(-190082 0 0)
(-131802 0 0)
(-49304.1 0 0)
(3819.16 -0 0)
(53370 -0 0)
(-4015.4 0 0)
(-96412.5 0 0)
(-111187 0 0)
(-14619.5 0 0)
(-67150.2 0 0)
(-28151.7 0 0)
(-73985.2 0 0)
(-80885.6 0 0)
(-77558.6 0 0)
(-57930 0 0)
(-55707.7 0 0)
(-81397.3 0 0)
(-76094.4 0 0)
(-50623.5 0 0)
(-43117.9 0 0)
(-49372.3 0 0)
(-58418.2 0 0)
(-56377.1 0 0)
(-52002.2 0 0)
(-42091.8 0 0)
(-45056.3 0 0)
(-39971.1 0 0)
(-40411.5 0 0)
(-31359.5 0 0)
(-28650.4 0 0)
(-31440.8 0 0)
(-25732.6 0 0)
(-27148.2 0 0)
(-20624.2 0 0)
(-18170.7 0 0)
(-19501.3 0 0)
(-9819.43 0 0)
(-8855.19 0 0)
(1457.6 -0 0)
(-9737.81 0 0)
(-13758.3 0 0)
(-24941.6 0 0)
(-16602.5 0 0)
(-16119.2 0 0)
(-13029.5 0 0)
(7133.79 -0 0)
(3630.93 -0 0)
(1833.15 -0 0)
(-10995.9 0 0)
(3067.51 -0 0)
(-4824.08 0 0)
(1388.64 -0 0)
(128.602 -0 0)
(3648.66 -0 0)
(881.572 -0 0)
(4667.81 -0 0)
(1156.54 -0 0)
(4339.76 -0 0)
(-4264.58 0 0)
(-675.671 0 0)
(-8966.31 0 0)
(-20155.2 0 0)
(-7612.58 0 0)
(-5800.68 0 0)
(-3658.86 0 0)
(3849.36 -0 0)
(-5206.67 0 0)
(-22083.7 0 0)
(-34814 0 0)
(-46832.2 0 0)
(-45030.1 0 0)
(-59199.6 0 0)
(-49438.5 0 0)
(-46572 0 0)
(-40869.2 0 0)
(-100728 0 0)
(-159004 0 0)
(-155672 0 0)
(8635.93 -0 0)
(148668 -0 0)
(118190 -0 0)
(29935.4 -0 0)
(65965.2 -0 0)
(212956 -0 0)
(117736 -0 0)
(174749 -0 0)
(205985 -0 0)
(140748 -0 0)
(98315.3 -0 0)
(-58946.9 0 0)
(-52750.5 0 0)
(-82813.6 0 0)
(-67897.1 0 0)
(-60283.6 0 0)
(-18453.1 0 0)
(-9992.02 0 0)
(54155.3 -0 0)
(-40418 0 0)
(-116053 0 0)
(-94981.8 0 0)
(-123850 0 0)
(-8491.63 0 0)
(-29249.5 0 0)
(-16361.9 0 0)
(-12540.4 0 0)
(34312.5 -0 0)
(-102244 0 0)
(-87170.6 0 0)
(-9520.85 0 0)
(-42932.8 0 0)
(-45154.1 0 0)
(-68147.5 0 0)
(-83172 0 0)
(-96210.4 0 0)
(-65421.7 0 0)
(-55212.9 0 0)
(-66666 0 0)
(-63642.1 0 0)
(-51058.3 0 0)
(-37058.6 0 0)
(-50903.3 0 0)
(-54201.4 0 0)
(-55035.3 0 0)
(-51052.5 0 0)
(-45709.7 0 0)
(-38134.6 0 0)
(-37916.2 0 0)
(-37868.8 0 0)
(-30046.5 0 0)
(-31136.6 0 0)
(-31119.5 0 0)
(-27598.3 0 0)
(-24541.6 0 0)
(-25120.4 0 0)
(-19120.8 0 0)
(-19567.8 0 0)
(-12194.1 0 0)
(-1174.92 0 0)
(-3516.63 0 0)
(4230.75 -0 0)
(-15624.2 0 0)
(-19247.4 0 0)
(-30513.7 0 0)
(-20581.7 0 0)
(702.171 -0 0)
(7070.88 -0 0)
(10931.7 -0 0)
(-5623.51 0 0)
(-1287.73 0 0)
(-4917.45 0 0)
(3911.16 -0 0)
(-5357.74 0 0)
(5459.42 -0 0)
(-209.934 0 0)
(5396.98 -0 0)
(4775.75 -0 0)
(9630.24 -0 0)
(3519.79 -0 0)
(4935.32 -0 0)
(-13356.3 0 0)
(-15950.1 0 0)
(-16321.3 0 0)
(-13085.9 0 0)
(-5443.81 0 0)
(-2942.69 0 0)
(-3874.25 0 0)
(-21730 0 0)
(-28004.8 0 0)
(-39367.8 0 0)
(-47684.1 0 0)
(-58209.6 0 0)
(-67866.7 0 0)
(-73026.3 0 0)
(-58011 0 0)
(-53995.9 0 0)
(-121766 0 0)
(-155034 0 0)
(-144718 0 0)
(22103.4 -0 0)
(136947 -0 0)
(90134.1 -0 0)
(17506.7 -0 0)
(172766 -0 0)
(319796 -0 0)
(233985 -0 0)
(201306 -0 0)
(158930 -0 0)
(105851 -0 0)
(29728.5 -0 0)
(-164114 0 0)
(-20438.2 0 0)
(650.768 -0 0)
(-38442.8 0 0)
(-32641.9 0 0)
(47802.1 -0 0)
(30258.6 -0 0)
(52982.1 -0 0)
(63404.5 -0 0)
(-7666.66 0 0)
(15198 -0 0)
(-9083.25 0 0)
(82364 -0 0)
(13227.5 -0 0)
(-19138.1 0 0)
(-59664.8 0 0)
(90862.5 -0 0)
(-10854.4 0 0)
(-22671.4 0 0)
(-13790.7 0 0)
(-56131 0 0)
(-72535.2 0 0)
(-75696.9 0 0)
(-69356.8 0 0)
(-83656.7 0 0)
(-65906.5 0 0)
(-45915.6 0 0)
(-48613 0 0)
(-58378.2 0 0)
(-49668.2 0 0)
(-33006.3 0 0)
(-45717 0 0)
(-50187.2 0 0)
(-53042.8 0 0)
(-49454.7 0 0)
(-41928.5 0 0)
(-35445 0 0)
(-34405.6 0 0)
(-31871 0 0)
(-30822.6 0 0)
(-26546.5 0 0)
(-27706.5 0 0)
(-21924.6 0 0)
(-27262.9 0 0)
(-22755.6 0 0)
(-22572.7 0 0)
(-15235 0 0)
(-17545.2 0 0)
(-5546.33 0 0)
(-4756.56 0 0)
(190.894 -0 0)
(-3475.99 0 0)
(-21051.5 0 0)
(-13786.5 0 0)
(-14741.6 0 0)
(10601.6 -0 0)
(7841.78 -0 0)
(6743.38 -0 0)
(189.544 -0 0)
(-5204.51 0 0)
(9031.69 -0 0)
(2609.37 -0 0)
(-3326.76 0 0)
(3562.09 -0 0)
(4749.69 -0 0)
(2934.89 -0 0)
(11038.3 -0 0)
(10398.8 -0 0)
(18534.1 -0 0)
(9299.38 -0 0)
(-17695.2 0 0)
(-7377.25 0 0)
(-20052.6 0 0)
(-18015.3 0 0)
(-6477.74 0 0)
(-4265.14 0 0)
(-16845.4 0 0)
(-27882.8 0 0)
(-39426.9 0 0)
(-62509.1 0 0)
(-79603.2 0 0)
(-76539.6 0 0)
(-64132.4 0 0)
(-81543.7 0 0)
(-71072.1 0 0)
(-71380.2 0 0)
(-135835 0 0)
(-159782 0 0)
(-123948 0 0)
(32789.4 -0 0)
(123060 -0 0)
(58998.2 -0 0)
(34933.6 -0 0)
(278399 -0 0)
(264131 -0 0)
(155567 -0 0)
(173966 -0 0)
(36203.2 -0 0)
(43822.7 -0 0)
(53429.8 -0 0)
(13676.5 -0 0)
(-16359.4 0 0)
(70318.1 -0 0)
(56983.8 -0 0)
(-17989.5 0 0)
(88601.6 -0 0)
(68419.7 -0 0)
(55378.1 -0 0)
(41793.2 -0 0)
(19299.7 -0 0)
(24944.2 -0 0)
(33766.1 -0 0)
(101768 -0 0)
(51868.3 -0 0)
(41434.5 -0 0)
(-62401 0 0)
(56711.1 -0 0)
(46217.4 -0 0)
(31812 -0 0)
(-10004.4 0 0)
(-79692.3 0 0)
(-87007.6 0 0)
(-44819.3 0 0)
(-38590.1 0 0)
(-51981.2 0 0)
(-41934.7 0 0)
(-32030.8 0 0)
(-40627 0 0)
(-47622.1 0 0)
(-46751.3 0 0)
(-33732.7 0 0)
(-40898.6 0 0)
(-47800.1 0 0)
(-48338.3 0 0)
(-48797.6 0 0)
(-38950.3 0 0)
(-32952.9 0 0)
(-31555.3 0 0)
(-31548.9 0 0)
(-27310.5 0 0)
(-26809.7 0 0)
(-22145.6 0 0)
(-24974.1 0 0)
(-24438.1 0 0)
(-25714.8 0 0)
(-19142.1 0 0)
(-20891.7 0 0)
(-12474.8 0 0)
(-6267.45 0 0)
(20034.8 -0 0)
(15039.5 -0 0)
(-8613.68 0 0)
(-8311.97 0 0)
(-14553.2 0 0)
(2757.75 -0 0)
(12106.5 -0 0)
(18667 -0 0)
(8366.61 -0 0)
(-5156.72 0 0)
(5240.29 -0 0)
(5260.36 -0 0)
(-3116.31 0 0)
(2349.6 -0 0)
(-1468.71 0 0)
(3353.43 -0 0)
(5663.32 -0 0)
(9817.9 -0 0)
(17793 -0 0)
(10749.5 -0 0)
(12665.1 -0 0)
(-16097.5 0 0)
(-6371.86 0 0)
(-15600.7 0 0)
(-22154.6 0 0)
(-5700.92 0 0)
(-6664.4 0 0)
(-20767.6 0 0)
(-45848.5 0 0)
(-64450.3 0 0)
(-68309.9 0 0)
(-87171.4 0 0)
(-93431 0 0)
(-81377.7 0 0)
(-79156.5 0 0)
(-72227.4 0 0)
(-105305 0 0)
(-144042 0 0)
(-177373 0 0)
(-95802.4 0 0)
(25394.1 -0 0)
(108213 -0 0)
(46068.4 -0 0)
(70835.8 -0 0)
(328824 -0 0)
(227087 -0 0)
(98192.3 -0 0)
(171372 -0 0)
(38469.2 -0 0)
(188067 -0 0)
(248817 -0 0)
(272651 -0 0)
(250470 -0 0)
(147510 -0 0)
(88155 -0 0)
(57286.6 -0 0)
(104919 -0 0)
(85261.2 -0 0)
(63561.3 -0 0)
(59349.3 -0 0)
(33340.6 -0 0)
(65463.8 -0 0)
(102109 -0 0)
(77180.7 -0 0)
(66773.4 -0 0)
(76281.2 -0 0)
(-36599.2 0 0)
(49774.2 -0 0)
(103371 -0 0)
(92867.1 -0 0)
(3843.49 -0 0)
(-67269.6 0 0)
(-74888.3 0 0)
(-23502.1 0 0)
(-667.77 0 0)
(-15440.3 0 0)
(-15372 0 0)
(-22893.6 0 0)
(-26549 0 0)
(-38170.9 0 0)
(-41116 0 0)
(-33532.3 0 0)
(-39942.1 0 0)
(-42250.9 0 0)
(-43032.7 0 0)
(-43155.5 0 0)
(-36360.8 0 0)
(-28534.4 0 0)
(-30970.4 0 0)
(-29063.6 0 0)
(-26595.9 0 0)
(-22969.3 0 0)
(-21922.5 0 0)
(-20440.5 0 0)
(-27696.7 0 0)
(-22919.9 0 0)
(-23797.4 0 0)
(-18060.4 0 0)
(-20305.6 0 0)
(-436.6 0 0)
(6936.23 -0 0)
(815.922 -0 0)
(3731.72 -0 0)
(-9488.93 0 0)
(1864.69 -0 0)
(3958.71 -0 0)
(19856.8 -0 0)
(12052.6 -0 0)
(-4995.69 0 0)