/*--------------------------------*- C++ -*----------------------------------*\
| =========                 |                                                 |
| \\      /  F ield         | foam-extend: Open Source CFD                    |
|  \\    /   O peration     | Version:     5.0                                |
|   \\  /    A nd           | Web:         http://www.foam-extend.org         |
|    \\/     M anipulation  |                                                 |
\*---------------------------------------------------------------------------*/
FoamFile
{
    version     2.0;
    format      ascii;
    class       volVectorField;
    location    "0.085";
    object      currentDensity;
}
// * * * * * * * * * * * * * * * * * * * * * * * * * * * * * * * * * * * * * //

dimensions      [0 -2 0 0 0 1 0];

internalField   nonuniform List<vector> 
4000
(
(0 0 68.6992)
(0 0 277.653)
(0 0 684.03)
(0 0 1145.9)
(0 0 2126.9)
(0 0 2743.81)
(0 0 2925.98)
(0 0 3733.9)
(0 0 5338.7)
(0 0 6823.62)
(0 0 8603.4)
(0 0 11095.8)
(0 0 11140.5)
(0 0 8427.24)
(0 0 5138.33)
(0 0 2877.64)
(0 0 4240.97)
(0 0 4250.11)
(0 0 5284.93)
(0 0 5616.64)
(0 0 6742.36)
(0 0 8263.26)
(0 0 9761.27)
(0 0 8941.38)
(0 0 10047.6)
(0 0 13336.8)
(0 0 18236.4)
(0 0 20276.7)
(0 0 17849)
(0 0 15136.2)
(0 0 15413.9)
(0 0 17164.7)
(0 0 17026.8)
(0 0 13871.7)
(0 0 13728.6)
(0 0 15249.4)
(0 0 15108.4)
(0 0 15237)
(0 0 14763.4)
(0 0 14493.6)
(0 0 13378.3)
(0 0 10511.3)
(0 0 8425.82)
(0 0 5400.98)
(0 0 4355.53)
(0 0 5219.76)
(0 0 5072.65)
(0 0 4654.64)
(0 0 3714.65)
(0 0 4164.32)
(0 0 3813.33)
(0 0 3917.93)
(0 0 3235.2)
(0 0 3775.55)
(0 0 3617.75)
(0 0 2984.19)
(0 0 2153.29)
(0 0 2406.07)
(0 0 1868.25)
(0 0 1870.14)
(0 0 1449.32)
(0 0 1239.97)
(0 0 1375.83)
(0 0 1237.41)
(0 0 1251.95)
(0 0 1036.67)
(0 0 800.496)
(0 0 683.761)
(0 0 614.02)
(0 0 448.767)
(0 0 355.525)
(0 0 295.016)
(0 0 153.498)
(0 0 98.937)
(0 0 78.7144)
(0 0 39.4372)
(0 0 -17.0813)
(0 0 1.73313)
(0 0 -107.923)
(0 0 -113.127)
(0 0 -367.163)
(0 0 -513.567)
(0 0 -825.773)
(0 0 -768.892)
(0 0 -986.332)
(0 0 -826.523)
(0 0 -634.941)
(0 0 -887.246)
(0 0 -559.41)
(0 0 -217.981)
(0 0 -332.221)
(0 0 216.873)
(0 0 78.8956)
(0 0 266.119)
(0 0 91.6839)
(0 0 136.926)
(0 0 160.866)
(0 0 187.942)
(0 0 437.284)
(0 0 527.88)
(0 0 162.731)
(0 0 438.682)
(0 0 753.11)
(0 0 1030.68)
(0 0 876.536)
(0 0 961.029)
(0 0 1609.17)
(0 0 1684.64)
(0 0 2314.12)
(0 0 3494.87)
(0 0 3703.01)
(0 0 4387.6)
(0 0 1771.69)
(0 0 -4118.55)
(0 0 -6223.13)
(0 0 -4962.34)
(0 0 -5571.43)
(0 0 -3561.58)
(0 0 -3010.07)
(0 0 -1091.28)
(0 0 724.925)
(0 0 3143.31)
(0 0 4630.83)
(0 0 4410.32)
(0 0 5184.2)
(0 0 9556.46)
(0 0 12885.3)
(0 0 11656.7)
(0 0 8437.16)
(0 0 8204.87)
(0 0 7371.85)
(0 0 9986.71)
(0 0 12751.2)
(0 0 13002)
(0 0 10648)
(0 0 11802.8)
(0 0 14124.4)
(0 0 12668.2)
(0 0 12141)
(0 0 10986.4)
(0 0 10770)
(0 0 9438.84)
(0 0 7848.77)
(0 0 6433.18)
(0 0 4669.92)
(0 0 4092.66)
(0 0 5450.4)
(0 0 4582.93)
(0 0 3969.78)
(0 0 3550.82)
(0 0 4437.43)
(0 0 3957.81)
(0 0 4150.44)
(0 0 3584.97)
(0 0 3884.1)
(0 0 3549.94)
(0 0 3983.12)
(0 0 3210.85)
(0 0 3444)
(0 0 2860.83)
(0 0 3240.53)
(0 0 2924.52)
(0 0 2230.66)
(0 0 2632.15)
(0 0 1986.02)
(0 0 2074.64)
(0 0 1251.2)
(0 0 1121.48)
(0 0 1209.26)
(0 0 728.282)
(0 0 617.651)
(0 0 588.537)
(0 0 256.345)
(0 0 276.254)
(0 0 218.965)
(0 0 113.643)
(0 0 -13.9744)
(0 0 244.333)
(0 0 -73.5428)
(0 0 32.9306)
(0 0 -597.376)
(0 0 -617.069)
(0 0 -1513.93)
(0 0 -1588.12)
(0 0 -1309.84)
(0 0 -1710.06)
(0 0 -1156.61)
(0 0 -1431.91)
(0 0 -822.488)
(0 0 -235.159)
(0 0 -476.904)
(0 0 529.36)
(0 0 334.531)
(0 0 576.71)
(0 0 238.239)
(0 0 377.15)
(0 0 474.068)
(0 0 387.308)
(0 0 808.982)
(0 0 804.967)
(0 0 116.009)
(0 0 16.1365)
(0 0 -67.7465)
(0 0 -212.188)
(0 0 -807.163)
(0 0 -870.82)
(0 0 -1619.63)
(0 0 -2053.59)
(0 0 -3710.24)
(0 0 -4254.14)
(0 0 -3515.01)
(0 0 -5254.1)
(0 0 -7988.07)
(0 0 -10678.8)
(0 0 -9978.01)
(0 0 -9740.13)
(0 0 -7399.28)
(0 0 -6201.01)
(0 0 -4572.5)
(0 0 -4346.9)
(0 0 -3617.01)
(0 0 -3101.91)
(0 0 -2965.79)
(0 0 -787.467)
(0 0 -1378.28)
(0 0 413.426)
(0 0 1468.39)
(0 0 266.684)
(0 0 -4249.62)
(0 0 -2997.18)
(0 0 340.442)
(0 0 2841.85)
(0 0 6895.24)
(0 0 8202.18)
(0 0 6247.16)
(0 0 7588.11)
(0 0 8411.26)
(0 0 8119.18)
(0 0 6496.24)
(0 0 6485.54)
(0 0 7577.61)
(0 0 6994.36)
(0 0 6075.37)
(0 0 4691.7)
(0 0 4144.72)
(0 0 3191.48)
(0 0 4434.68)
(0 0 5024.8)
(0 0 4399.41)
(0 0 3824.91)
(0 0 3701.43)
(0 0 4356.27)
(0 0 3620.29)
(0 0 3683.56)
(0 0 3110.77)
(0 0 3290.55)
(0 0 3956.82)
(0 0 3187.95)
(0 0 3430.02)
(0 0 2852.1)
(0 0 3201.04)
(0 0 2734.26)
(0 0 3133.81)
(0 0 2771.73)
(0 0 1978.06)
(0 0 2328.79)
(0 0 1566.35)
(0 0 1644.56)
(0 0 1085.23)
(0 0 955.276)
(0 0 1120.22)
(0 0 540.238)
(0 0 554.653)
(0 0 467.53)
(0 0 400.66)
(0 0 512.111)
(0 0 336.612)
(0 0 147.471)
(0 0 547.791)
(0 0 -36.5936)
(0 0 -83.857)
(0 0 -380.841)
(0 0 -1334.28)
(0 0 -842.066)
(0 0 -1460.48)
(0 0 -1131.84)
(0 0 -1389.19)
(0 0 -861.735)
(0 0 -994.16)
(0 0 -191.418)
(0 0 -251.231)
(0 0 758.131)
(0 0 637.654)
(0 0 532.256)
(0 0 728.712)
(0 0 235.296)
(0 0 251.809)
(0 0 674.684)
(0 0 636.538)
(0 0 1158.2)
(0 0 92.6281)
(0 0 -510.094)
(0 0 -741.467)
(0 0 -1332.85)
(0 0 -1710)
(0 0 -2716)
(0 0 -3510.71)
(0 0 -5380.29)
(0 0 -6988.25)
(0 0 -8592.45)
(0 0 -8186.27)
(0 0 -9236.72)
(0 0 -11994.1)
(0 0 -11799.4)
(0 0 -8871.14)
(0 0 -8603.38)
(0 0 -4579.55)
(0 0 -3815.23)
(0 0 -2439.57)
(0 0 -2557.14)
(0 0 -4787.25)
(0 0 -7232.46)
(0 0 -8592.96)
(0 0 -7935.24)
(0 0 -8210.16)
(0 0 -8220.71)
(0 0 -5497.85)
(0 0 -7608)
(0 0 -10442.5)
(0 0 -8255.4)
(0 0 -4012.83)
(0 0 -4094.55)
(0 0 -958.514)
(0 0 1805)
(0 0 -44.4318)
(0 0 -923.719)
(0 0 1644.29)
(0 0 792.887)
(0 0 -529.792)
(0 0 2288.34)
(0 0 6805.2)
(0 0 6093.04)
(0 0 4454.55)
(0 0 3813.81)
(0 0 3229.86)
(0 0 3133.94)
(0 0 3040.47)
(0 0 5078.51)
(0 0 3797.34)
(0 0 2615.14)
(0 0 3709.2)
(0 0 3892.28)
(0 0 4194.32)
(0 0 3592.5)
(0 0 3714.29)
(0 0 3401.75)
(0 0 3682.02)
(0 0 3089.48)
(0 0 3257.47)
(0 0 2719.07)
(0 0 2966.21)
(0 0 2544.37)
(0 0 3009.91)
(0 0 2250.78)
(0 0 2024.48)
(0 0 2331.41)
(0 0 1800.37)
(0 0 1625.69)
(0 0 1272.22)
(0 0 1524.06)
(0 0 1205.19)
(0 0 626.689)
(0 0 554.67)
(0 0 656.853)
(0 0 640.824)
(0 0 574.973)
(0 0 780.594)
(0 0 411.28)
(0 0 735.257)
(0 0 113.974)
(0 0 71.5692)
(0 0 -610.496)
(0 0 -1186.94)
(0 0 -800.272)
(0 0 -1229.8)
(0 0 -1512.48)
(0 0 -1059.61)
(0 0 -1165.3)
(0 0 -639.371)
(0 0 -558.368)
(0 0 156.117)
(0 0 509.989)
(0 0 1129.92)
(0 0 725.328)
(0 0 892.042)
(0 0 331.646)
(0 0 545.997)
(0 0 487.903)
(0 0 775.113)
(0 0 962.529)
(0 0 -26.3615)
(0 0 -869.479)
(0 0 -1430.45)
(0 0 -1821.52)
(0 0 -2812.72)
(0 0 -3754.18)
(0 0 -5487.78)
(0 0 -7164.4)
(0 0 -9606.73)
(0 0 -9578.64)
(0 0 -9384.9)
(0 0 -10420.3)
(0 0 -12157.2)
(0 0 -11350.3)
(0 0 -6028.47)
(0 0 -3862.8)
(0 0 536.191)
(0 0 4588.16)
(0 0 4530.44)
(0 0 836.382)
(0 0 -5737.81)
(0 0 -9791.64)
(0 0 -11262.8)
(0 0 -11706.9)
(0 0 -10894.5)
(0 0 -11697.9)
(0 0 -12531.6)
(0 0 -14012.1)
(0 0 -12434.8)
(0 0 -6691.73)
(0 0 -4844.56)
(0 0 -2980.32)
(0 0 -6320.74)
(0 0 -5492.79)
(0 0 -7375.62)
(0 0 -6378.11)
(0 0 -6275.89)
(0 0 -5586.89)
(0 0 -2964.08)
(0 0 84.0748)
(0 0 4526.57)
(0 0 2914.08)
(0 0 4622.49)
(0 0 3123.97)
(0 0 3406.56)
(0 0 3382.64)
(0 0 2973.84)
(0 0 3892.94)
(0 0 3338.06)
(0 0 2968.08)
(0 0 2719.86)
(0 0 3896.54)
(0 0 3645.83)
(0 0 4087.92)
(0 0 3433.36)
(0 0 3738.31)
(0 0 3240.91)
(0 0 3429.68)
(0 0 2919.27)
(0 0 3041.22)
(0 0 2608.47)
(0 0 2785.74)
(0 0 2435.21)
(0 0 2625.63)
(0 0 2201.5)
(0 0 2071.07)
(0 0 2372.19)
(0 0 1780.21)
(0 0 1853.93)
(0 0 1580.25)
(0 0 957.826)
(0 0 756.159)
(0 0 829.364)
(0 0 630.636)
(0 0 743.436)
(0 0 799.627)
(0 0 694.655)
(0 0 820.512)
(0 0 494.646)
(0 0 501.105)
(0 0 -148.195)
(0 0 -341.088)
(0 0 -883.036)
(0 0 -1365.02)
(0 0 -1290.88)
(0 0 -1185.82)
(0 0 -1127.01)
(0 0 -814.546)
(0 0 -523.804)
(0 0 -276.926)
(0 0 229.484)
(0 0 848.714)
(0 0 911.955)
(0 0 1027.82)
(0 0 683.335)
(0 0 605.13)
(0 0 386.361)
(0 0 754.129)
(0 0 754.723)
(0 0 1229.88)
(0 0 -135.115)
(0 0 -1011.03)
(0 0 -1830.88)
(0 0 -2447.72)
(0 0 -3385.52)
(0 0 -5010.22)
(0 0 -6470.06)
(0 0 -8730.05)
(0 0 -9620.48)
(0 0 -9619.73)
(0 0 -9319.98)
(0 0 -9719.8)
(0 0 -11829.2)
(0 0 -9155.52)
(0 0 -3881.43)
(0 0 2982.16)
(0 0 11592.2)
(0 0 19247.4)
(0 0 11325.9)
(0 0 -1170.79)
(0 0 -8358.67)
(0 0 -10624.3)
(0 0 -9312.8)
(0 0 -9280.56)
(0 0 -10244.7)
(0 0 -8830.15)
(0 0 -12102.9)
(0 0 -14831.3)
(0 0 -10190.7)
(0 0 -5022.66)
(0 0 -6169.28)
(0 0 -2615.43)
(0 0 -6168.46)
(0 0 -10823.7)
(0 0 -11383.2)
(0 0 -8293.45)
(0 0 -8415.08)
(0 0 -10351)
(0 0 -7404.62)
(0 0 220.183)
(0 0 -462.426)
(0 0 173.456)
(0 0 3714.02)
(0 0 3814.38)
(0 0 4753.38)
(0 0 4194.94)
(0 0 4133.1)
(0 0 4401.2)
(0 0 4273.19)
(0 0 3639.18)
(0 0 2733.38)
(0 0 3411.22)
(0 0 3283.91)
(0 0 3898.87)
(0 0 3461.61)
(0 0 3737.05)
(0 0 3574.53)
(0 0 3084.7)
(0 0 3305.18)
(0 0 2790.48)
(0 0 2884.44)
(0 0 2506.07)
(0 0 2673)
(0 0 2322.14)
(0 0 2525.79)
(0 0 2054.7)
(0 0 2576.16)
(0 0 2160.43)
(0 0 1826.47)
(0 0 1392.3)
(0 0 1026.01)
(0 0 758.532)
(0 0 778.537)
(0 0 798.829)
(0 0 807.151)
(0 0 800.205)
(0 0 894.538)
(0 0 675.322)
(0 0 760.09)
(0 0 245.944)
(0 0 140.766)
(0 0 -616.14)
(0 0 -622.423)
(0 0 -1441.99)
(0 0 -1302.18)
(0 0 -942.507)
(0 0 -1007.3)
(0 0 -533.824)
(0 0 -217.717)
(0 0 157.951)
(0 0 483.77)
(0 0 990.721)
(0 0 894.004)
(0 0 772.328)
(0 0 728.254)
(0 0 418.695)
(0 0 573.473)
(0 0 570.501)
(0 0 987.31)
(0 0 1074.75)
(0 0 -337.992)
(0 0 -1067.86)
(0 0 -1879.19)
(0 0 -2692.45)
(0 0 -4158.34)
(0 0 -5597.57)
(0 0 -7425.27)
(0 0 -8702.1)
(0 0 -8319.31)
(0 0 -8027.1)
(0 0 -7896.19)
(0 0 -8337.42)
(0 0 -10600.1)
(0 0 -6232.58)
(0 0 -1933.86)
(0 0 3197.9)
(0 0 12836.7)
(0 0 21539.5)
(0 0 6775.17)
(0 0 -2648.79)
(0 0 -6424.49)
(0 0 -2822.78)
(0 0 793.165)
(0 0 4906.7)
(0 0 6397.24)
(0 0 -105.029)
(0 0 -6617.47)
(0 0 -7876.04)
(0 0 -3837.52)
(0 0 -1234.14)
(0 0 -2469.21)
(0 0 8037.36)
(0 0 2108.2)
(0 0 -6002.41)
(0 0 -7117.42)
(0 0 -4143.07)
(0 0 -11014.7)
(0 0 -10897.3)
(0 0 -7078.35)
(0 0 -1970.46)
(0 0 -2229.29)
(0 0 -2227.22)
(0 0 2762.98)
(0 0 5611.87)
(0 0 5739.67)
(0 0 6411.19)
(0 0 4792.77)
(0 0 5496.59)
(0 0 6610.84)
(0 0 4460.08)
(0 0 4129.4)
(0 0 3355.75)
(0 0 2663.32)
(0 0 3209.16)
(0 0 3552.93)
(0 0 3215.46)
(0 0 3473.93)
(0 0 3113.73)
(0 0 3260.55)
(0 0 3146.78)
(0 0 2620.9)
(0 0 2712.26)
(0 0 2424.33)
(0 0 2441.79)
(0 0 2093.99)
(0 0 2193.06)
(0 0 2296.95)
(0 0 1933.61)
(0 0 1460.49)
(0 0 978.395)
(0 0 934.301)
(0 0 1076.48)
(0 0 1060.51)
(0 0 752.591)
(0 0 851.756)
(0 0 901.118)
(0 0 820.399)
(0 0 852.652)
(0 0 524.879)
(0 0 438.708)
(0 0 -108.179)
(0 0 -693.359)
(0 0 -821.15)
(0 0 -1079.64)
(0 0 -837.632)
(0 0 -843.445)
(0 0 -477.648)
(0 0 -402.26)
(0 0 426.493)
(0 0 761.515)
(0 0 576.414)
(0 0 1012.57)
(0 0 852.965)
(0 0 763.776)
(0 0 481.172)
(0 0 488.029)
(0 0 393.297)
(0 0 700.552)
(0 0 943.308)
(0 0 951.347)
(0 0 -494.584)
(0 0 -1206.16)
(0 0 -1972)
(0 0 -3070.57)
(0 0 -4447.67)
(0 0 -6162.96)
(0 0 -6959.77)
(0 0 -7080.53)
(0 0 -6519.7)
(0 0 -6503.19)
(0 0 -5614.59)
(0 0 -6821.39)
(0 0 -8221.63)
(0 0 -3410.73)
(0 0 470.095)
(0 0 9935.38)
(0 0 15290.4)
(0 0 17270.3)
(0 0 9217.53)
(0 0 -1251.02)
(0 0 2876.9)
(0 0 2983.22)
(0 0 -1058.16)
(0 0 958.016)
(0 0 2140.24)
(0 0 3455.71)
(0 0 6337.7)
(0 0 2838.49)
(0 0 658.056)
(0 0 7264.97)
(0 0 -2930.56)
(0 0 18247.8)
(0 0 2573.79)
(0 0 -1505.48)
(0 0 -798.833)
(0 0 2000.93)
(0 0 -9063.61)
(0 0 -6597.69)
(0 0 -2891.8)
(0 0 -2411.57)
(0 0 -1811.92)
(0 0 -2132.25)
(0 0 1197.04)
(0 0 5717.4)
(0 0 6319.16)
(0 0 7960.62)
(0 0 5536.49)
(0 0 5891.72)
(0 0 8492.9)
(0 0 6551.28)
(0 0 5465.59)
(0 0 3488.14)
(0 0 3161.17)
(0 0 3778.18)
(0 0 3322.55)
(0 0 3402.71)
(0 0 3144.73)
(0 0 3300.8)
(0 0 2763.98)
(0 0 2524.11)
(0 0 2944.13)
(0 0 2543.07)
(0 0 2717.25)
(0 0 2176.49)
(0 0 2090.56)
(0 0 2352.51)
(0 0 1731.21)
(0 0 1584.41)
(0 0 1204.71)
(0 0 1027.87)
(0 0 1313.54)
(0 0 866.867)
(0 0 1022.25)
(0 0 882.224)
(0 0 830.624)
(0 0 914.167)
(0 0 919.511)
(0 0 734.946)
(0 0 650.93)
(0 0 173.493)
(0 0 56.4801)
(0 0 -659.94)
(0 0 -819.143)
(0 0 -388.618)
(0 0 -579.114)
(0 0 -221.428)
(0 0 -522.098)
(0 0 75.9205)
(0 0 39.0048)
(0 0 808.157)
(0 0 983.786)
(0 0 771.609)
(0 0 835.017)
(0 0 666.915)
(0 0 423.566)
(0 0 392.497)
(0 0 460.349)
(0 0 651.138)
(0 0 927.757)
(0 0 633.987)
(0 0 -560.42)
(0 0 -1282.43)
(0 0 -2122.77)
(0 0 -3156.74)
(0 0 -4750.75)
(0 0 -5764.32)
(0 0 -5981.89)
(0 0 -5625.91)
(0 0 -5155.03)
(0 0 -4845.38)
(0 0 -3613.96)
(0 0 -4875.36)
(0 0 -5848.73)
(0 0 -1107.54)
(0 0 796.388)
(0 0 3549.55)
(0 0 8934.34)
(0 0 6761.81)
(0 0 3188.2)
(0 0 745.67)
(0 0 3601.74)
(0 0 5504.14)
(0 0 1877.15)
(0 0 -2678.59)
(0 0 -1770.85)
(0 0 -1801.33)
(0 0 566.71)
(0 0 1156.32)
(0 0 858.972)
(0 0 8757.97)
(0 0 -805.808)
(0 0 5871.27)
(0 0 6875.61)
(0 0 4716.9)
(0 0 3916.06)
(0 0 4037.95)
(0 0 -265.385)
(0 0 -2967.13)
(0 0 -60.5789)
(0 0 -1880.3)
(0 0 -2586.11)
(0 0 -2565.39)
(0 0 -1191.79)
(0 0 4780.37)
(0 0 4510.3)
(0 0 9053.65)
(0 0 6304.49)
(0 0 5323.99)
(0 0 10521.9)
(0 0 7729.41)
(0 0 6834.18)
(0 0 4991.92)
(0 0 4135.66)
(0 0 3439)
(0 0 3581.13)
(0 0 3122.76)
(0 0 3414.36)
(0 0 3200.92)
(0 0 3270.12)
(0 0 2840.62)
(0 0 2931.79)
(0 0 2608.01)
(0 0 2749.51)
(0 0 2346.15)
(0 0 2402.26)
(0 0 2010.91)
(0 0 1875.91)
(0 0 1544.52)
(0 0 1741.72)
(0 0 1222.86)
(0 0 1344.51)
(0 0 916.157)
(0 0 921.661)
(0 0 743.981)
(0 0 853.693)
(0 0 906.837)
(0 0 914.897)
(0 0 831.508)
(0 0 494.699)
(0 0 253.61)
(0 0 -236.565)
(0 0 -449.773)
(0 0 -85.9314)
(0 0 -91.9211)
(0 0 23.0168)
(0 0 -142.002)
(0 0 -236.663)
(0 0 -490.813)
(0 0 -206.748)
(0 0 207.587)
(0 0 922.307)
(0 0 933.044)
(0 0 1023.43)
(0 0 517.445)
(0 0 384.617)
(0 0 357.758)
(0 0 439.397)
(0 0 664.499)
(0 0 853.263)
(0 0 399.587)
(0 0 -412.493)
(0 0 -1233.94)
(0 0 -2105.33)
(0 0 -3119)
(0 0 -4447.91)
(0 0 -4995.59)
(0 0 -4654.63)
(0 0 -4119.14)
(0 0 -3281.96)
(0 0 -2847.11)
(0 0 -1739.64)
(0 0 -3662.97)
(0 0 -4231.09)
(0 0 -1314.19)
(0 0 -469.155)
(0 0 3443.07)
(0 0 7751.25)
(0 0 -860.998)
(0 0 -2501.51)
(0 0 4390.15)
(0 0 12298.9)
(0 0 3471.99)
(0 0 -3199.3)
(0 0 -2350.37)
(0 0 1301.75)
(0 0 1858.13)
(0 0 462.849)
(0 0 -1232.04)
(0 0 -514.258)
(0 0 5393.18)
(0 0 2138.58)
(0 0 8002.77)
(0 0 17591.8)
(0 0 6963.89)
(0 0 5629.94)
(0 0 3723.3)
(0 0 2231.55)
(0 0 -1080.11)
(0 0 3224.04)
(0 0 -2374.5)
(0 0 -3742.78)
(0 0 -2352.45)
(0 0 -1968.98)
(0 0 4235.77)
(0 0 2351.21)
(0 0 6778.22)
(0 0 8331.95)
(0 0 4260.54)
(0 0 10819.7)
(0 0 8568.6)
(0 0 7906.77)
(0 0 6172.79)
(0 0 5012.62)
(0 0 3908.03)
(0 0 3602.97)
(0 0 3189.67)
(0 0 3139.32)
(0 0 3430.35)
(0 0 3100.71)
(0 0 3091.31)
(0 0 2719.29)
(0 0 2725.79)
(0 0 2558.88)
(0 0 2514.68)
(0 0 2269.73)
(0 0 2184.79)
(0 0 1595.17)
(0 0 1628.35)
(0 0 1909.54)
(0 0 1479.88)
(0 0 1219.66)
(0 0 1165.79)
(0 0 714.167)
(0 0 772.712)
(0 0 771.151)
(0 0 935.012)
(0 0 898.798)
(0 0 837.474)
(0 0 588.833)
(0 0 177.284)
(0 0 -59.0309)
(0 0 116.173)
(0 0 222.461)
(0 0 355.632)
(0 0 -161.646)
(0 0 111.764)
(0 0 -142.088)
(0 0 702.053)
(0 0 690.417)
(0 0 597.061)
(0 0 368.403)
(0 0 575.326)
(0 0 790.295)
(0 0 605.583)
(0 0 403.844)
(0 0 393.423)
(0 0 485.978)
(0 0 635.185)
(0 0 604.698)
(0 0 262.83)
(0 0 -364.796)
(0 0 -1060.04)
(0 0 -1949.35)
(0 0 -2889.3)
(0 0 -3865.17)
(0 0 -3824.65)
(0 0 -3148.62)
(0 0 -2800.75)
(0 0 -2635.85)
(0 0 -2804.88)
(0 0 -1768.6)
(0 0 -3343.99)
(0 0 -2824.34)
(0 0 26.9333)
(0 0 -66.3475)
(0 0 4776.29)
(0 0 3772.57)
(0 0 -8488.73)
(0 0 -815.555)
(0 0 6594.21)
(0 0 7617.43)
(0 0 882.392)
(0 0 -1912.31)
(0 0 2682.5)
(0 0 5330.05)
(0 0 5200.05)
(0 0 1340.19)
(0 0 531.812)
(0 0 -293.441)
(0 0 4789.19)
(0 0 3088.03)
(0 0 12056.4)
(0 0 17061.9)
(0 0 9780.05)
(0 0 10897.2)
(0 0 6369.16)
(0 0 3393.03)
(0 0 2894.89)
(0 0 4836.13)
(0 0 -3235.7)
(0 0 -5159.28)
(0 0 -2614.69)
(0 0 -1441.45)
(0 0 2693.53)
(0 0 1412.41)
(0 0 3733.02)
(0 0 7641.04)
(0 0 3458.38)
(0 0 7712.54)
(0 0 7761.85)
(0 0 7382.98)
(0 0 6778.87)
(0 0 5547.4)
(0 0 4065.71)
(0 0 3114.33)
(0 0 2699.41)
(0 0 3138.42)
(0 0 3163.37)
(0 0 3260.45)
(0 0 2958.64)
(0 0 2904.7)
(0 0 2477.19)
(0 0 2694.43)
(0 0 2384.07)
(0 0 2459.93)
(0 0 2124.79)
(0 0 1668.67)
(0 0 1900.32)
(0 0 1771.59)
(0 0 1294.41)
(0 0 1450.09)
(0 0 1181.22)
(0 0 812.212)
(0 0 613.808)
(0 0 816.761)
(0 0 850.27)
(0 0 936.627)
(0 0 835.997)
(0 0 650.584)
(0 0 230.284)
(0 0 390.609)
(0 0 465.804)
(0 0 676.723)
(0 0 317.914)
(0 0 190.923)
(0 0 -10.7033)
(0 0 655.37)
(0 0 805.681)
(0 0 466.04)
(0 0 68.1371)
(0 0 565.862)
(0 0 728.556)
(0 0 413.891)
(0 0 656.359)
(0 0 448.831)
(0 0 366.692)
(0 0 553.814)
(0 0 421.946)
(0 0 666.062)
(0 0 355.791)
(0 0 -166.004)
(0 0 -806.056)
(0 0 -1671.54)
(0 0 -2452.15)
(0 0 -2973.7)
(0 0 -2718.89)
(0 0 -2505.53)
(0 0 -2221.6)
(0 0 -2385.42)
(0 0 -2094.75)
(0 0 -1573.57)
(0 0 -2805.07)
(0 0 -1580.11)
(0 0 1399.6)
(0 0 1754.87)
(0 0 6315.29)
(0 0 -1084.56)
(0 0 -10660.1)
(0 0 -1260.85)
(0 0 4477.02)
(0 0 6032.11)
(0 0 3689.39)
(0 0 2195.95)
(0 0 9604.75)
(0 0 10655.2)
(0 0 2890.49)
(0 0 2557.48)
(0 0 1945.73)
(0 0 922.747)
(0 0 4685.91)
(0 0 5988.41)
(0 0 4167.34)
(0 0 8957.81)
(0 0 6347.9)
(0 0 19352.9)
(0 0 12828.8)
(0 0 3962.14)
(0 0 9114.88)
(0 0 7698.83)
(0 0 -5506.51)
(0 0 -6179.53)
(0 0 -2866.57)
(0 0 -1065.53)
(0 0 1570.2)
(0 0 2964.82)
(0 0 2028.77)
(0 0 7017.58)
(0 0 2198.67)
(0 0 4167.08)
(0 0 4878.51)
(0 0 5493.5)
(0 0 6295.54)
(0 0 5442.93)
(0 0 4544.43)
(0 0 2666.41)
(0 0 2771.04)
(0 0 2841.46)
(0 0 3280.96)
(0 0 2973.19)
(0 0 3171)
(0 0 2935.06)
(0 0 2375.92)
(0 0 2522.93)
(0 0 2402.3)
(0 0 2380.4)
(0 0 1805.14)
(0 0 1903.09)
(0 0 1809.56)
(0 0 1431.52)
(0 0 1344.48)
(0 0 1400.28)
(0 0 995.345)
(0 0 797.085)
(0 0 829.028)
(0 0 635.368)
(0 0 895.539)
(0 0 838.719)
(0 0 987.542)
(0 0 683.078)
(0 0 381.918)
(0 0 720.456)
(0 0 960.97)
(0 0 717.729)
(0 0 562.601)
(0 0 -72.6915)
(0 0 471.911)
(0 0 688.466)
(0 0 389.643)
(0 0 -144.123)
(0 0 294.142)
(0 0 120.399)
(0 0 394.616)
(0 0 324.952)
(0 0 486.377)
(0 0 287.49)
(0 0 437.423)
(0 0 317.393)
(0 0 479.452)
(0 0 414.029)
(0 0 256.797)
(0 0 -77.3725)
(0 0 -529.111)
(0 0 -1329.08)
(0 0 -1916.86)
(0 0 -1944.37)
(0 0 -2011.22)
(0 0 -1656.63)
(0 0 -1696.12)
(0 0 -1437.51)
(0 0 -1629)
(0 0 -687.202)
(0 0 -1971.73)
(0 0 948.028)
(0 0 2660.5)
(0 0 4387.34)
(0 0 5574.58)
(0 0 -4609.47)
(0 0 -9785.76)
(0 0 -2798.43)
(0 0 2558.89)
(0 0 5144.18)
(0 0 9096.19)
(0 0 6792.16)
(0 0 5345.81)
(0 0 3439.13)
(0 0 -1883.95)
(0 0 5372.53)
(0 0 3075.6)
(0 0 2101.65)
(0 0 6103.47)
(0 0 10329.5)
(0 0 3636.94)
(0 0 5238.87)
(0 0 3263.82)
(0 0 13391.7)
(0 0 15612.6)
(0 0 4211.31)
(0 0 14359.8)
(0 0 7151.54)
(0 0 -1586.73)
(0 0 -6724.11)
(0 0 -3344.09)
(0 0 -1042.56)
(0 0 1752.23)
(0 0 3623.5)
(0 0 1307.41)
(0 0 7929.94)
(0 0 1322.17)
(0 0 2084.91)
(0 0 3430.44)
(0 0 2953.18)
(0 0 4005.13)
(0 0 5630.19)
(0 0 5333.62)
(0 0 3211.64)
(0 0 2372.01)
(0 0 2824.59)
(0 0 3094.05)
(0 0 2905.67)
(0 0 2970.04)
(0 0 2599.7)
(0 0 2642.07)
(0 0 2306.72)
(0 0 2484.7)
(0 0 2073.85)
(0 0 1951.93)
(0 0 1743.74)
(0 0 1471.44)
(0 0 1568.12)
(0 0 1569.68)
(0 0 1168.6)
(0 0 1194.39)
(0 0 1069.53)
(0 0 686.999)
(0 0 659.404)
(0 0 694.739)
(0 0 911.742)
(0 0 979.619)
(0 0 1061.66)
(0 0 770.922)
(0 0 1220.33)
(0 0 975.735)
(0 0 1014.03)
(0 0 495.21)
(0 0 -101.403)
(0 0 -319.827)
(0 0 -351.393)
(0 0 -298.907)
(0 0 249.568)
(0 0 -95.305)
(0 0 222.655)
(0 0 7.7677)
(0 0 360.798)
(0 0 176.329)
(0 0 347.846)
(0 0 184.058)
(0 0 381.524)
(0 0 141.202)
(0 0 689.773)
(0 0 136.578)
(0 0 27.8604)
(0 0 -357.976)
(0 0 -1054.23)
(0 0 -1337.9)
(0 0 -1471.18)
(0 0 -1066.01)
(0 0 -1101.59)
(0 0 -621.798)
(0 0 -888.211)
(0 0 -132.01)
(0 0 384.469)
(0 0 -1098.15)
(0 0 3039.21)
(0 0 5315.77)
(0 0 5731.71)
(0 0 4104.66)
(0 0 -7659.33)
(0 0 -10733.1)
(0 0 -3242.41)
(0 0 1399.12)
(0 0 3110.34)
(0 0 4426.77)
(0 0 2117.4)
(0 0 848.938)
(0 0 -1908.35)
(0 0 -4769.31)
(0 0 6620.43)
(0 0 3527.49)
(0 0 1195.02)
(0 0 4447.01)
(0 0 11377.8)
(0 0 1136.53)
(0 0 5099.43)
(0 0 3435.12)
(0 0 6344.73)
(0 0 14162.1)
(0 0 10353)
(0 0 15180.2)
(0 0 11859.6)
(0 0 3536.29)
(0 0 -5933.35)
(0 0 -4011.79)
(0 0 -448.714)
(0 0 2339.87)
(0 0 4415.04)
(0 0 1566.79)
(0 0 8619.61)
(0 0 1233.91)
(0 0 1919.2)
(0 0 3255.34)
(0 0 2091.8)
(0 0 2800.09)
(0 0 4276.12)
(0 0 4697.05)
(0 0 3478.59)
(0 0 2370.98)
(0 0 2458.84)
(0 0 3206.89)
(0 0 3180.62)
(0 0 2819.87)
(0 0 2652.46)
(0 0 2512.67)
(0 0 2213.52)
(0 0 2372.45)
(0 0 2128.98)
(0 0 1737.53)
(0 0 1484.01)
(0 0 1571.64)
(0 0 1317.23)
(0 0 1454.62)
(0 0 1241.94)
(0 0 1020.43)
(0 0 1065.31)
(0 0 866.775)
(0 0 312.918)
(0 0 768.979)
(0 0 606.144)
(0 0 1291.73)
(0 0 1035.71)
(0 0 1281.65)
(0 0 1057.83)
(0 0 1166.1)
(0 0 506.088)
(0 0 200.23)
(0 0 -574.478)
(0 0 -284.616)
(0 0 521.959)
(0 0 260.639)
(0 0 -151.032)
(0 0 90.8512)
(0 0 -0.78536)
(0 0 -90.2516)
(0 0 74.492)
(0 0 236.84)
(0 0 86.0106)
(0 0 319.477)
(0 0 36.4216)
(0 0 142.343)
(0 0 813.605)
(0 0 119.561)
(0 0 63.841)
(0 0 -279.346)
(0 0 -827.269)
(0 0 -862.753)
(0 0 -482.201)
(0 0 -16.935)
(0 0 -144.398)
(0 0 -20.3103)
(0 0 574.087)
(0 0 653.805)
(0 0 847.952)
(0 0 -68.871)
(0 0 3403.3)
(0 0 7370.56)
(0 0 7180.94)
(0 0 2245.57)
(0 0 -8337.82)
(0 0 -9073.6)
(0 0 -3260.04)
(0 0 1447.3)
(0 0 4816.56)
(0 0 1822.15)
(0 0 -387.432)
(0 0 -4568.58)
(0 0 -6472.9)
(0 0 -5580.41)
(0 0 5173.96)
(0 0 3475.69)
(0 0 2024.79)
(0 0 3156.91)
(0 0 8860.46)
(0 0 1196.96)
(0 0 4353.8)
(0 0 2674.04)
(0 0 5904.57)
(0 0 12794.1)
(0 0 8704.39)
(0 0 11475.5)
(0 0 15631.8)
(0 0 5394.63)
(0 0 -3219.28)
(0 0 -4380.98)
(0 0 -199.064)
(0 0 3787.42)
(0 0 4785.98)
(0 0 1159.8)
(0 0 5560.47)
(0 0 1199.66)
(0 0 2107.48)
(0 0 2835.97)
(0 0 2070.73)
(0 0 2788.31)
(0 0 3496.1)
(0 0 4159.52)
(0 0 3783.81)
(0 0 2271.92)
(0 0 2269.01)
(0 0 2942.02)
(0 0 3014.54)
(0 0 2953.29)
(0 0 2531.41)
(0 0 2096.67)
(0 0 2322.32)
(0 0 2333.04)
(0 0 2018.34)
(0 0 1797.33)
(0 0 1609.99)
(0 0 1396.68)
(0 0 1412.81)
(0 0 1199.66)
(0 0 1007.17)
(0 0 1100.14)
(0 0 824.029)
(0 0 772.916)
(0 0 234.938)
(0 0 481.891)
(0 0 461.419)
(0 0 1222.52)
(0 0 1358.77)
(0 0 901.628)
(0 0 1293.38)
(0 0 732.304)
(0 0 328.698)
(0 0 -404.189)
(0 0 97.5489)
(0 0 465.253)
(0 0 531.942)
(0 0 -176.451)
(0 0 163.413)
(0 0 -298.568)
(0 0 -330.232)
(0 0 -92.0754)
(0 0 80.986)
(0 0 -73.6205)
(0 0 181.669)
(0 0 -2.61238)
(0 0 466.571)
(0 0 650.86)
(0 0 895.186)
(0 0 256.922)
(0 0 193.741)
(0 0 -142.158)
(0 0 -500.956)
(0 0 -124.03)
(0 0 146.322)
(0 0 540.998)
(0 0 1187.23)
(0 0 1676.06)
(0 0 1438.11)
(0 0 2088.16)
(0 0 1381.15)
(0 0 800.803)
(0 0 4768.23)
(0 0 7473.18)
(0 0 8438.1)
(0 0 914.154)
(0 0 -7475.13)
(0 0 -7152.45)
(0 0 -2800.38)
(0 0 -371.379)
(0 0 -2020.86)
(0 0 -2397.72)
(0 0 -7872.27)
(0 0 -8465.1)
(0 0 -8144.45)
(0 0 -6512.72)
(0 0 1473.29)
(0 0 2491.14)
(0 0 2413.15)
(0 0 3175.95)
(0 0 6210.99)
(0 0 3105.24)
(0 0 2588.02)
(0 0 -527.693)
(0 0 6300.01)
(0 0 10897.8)
(0 0 7843)
(0 0 9504.09)
(0 0 6590.09)
(0 0 2465.2)
(0 0 -190.958)
(0 0 -2668.5)
(0 0 200.77)
(0 0 4820.63)
(0 0 5559.33)
(0 0 730.976)
(0 0 3357.51)
(0 0 1407.58)
(0 0 3699.26)
(0 0 4044.28)
(0 0 3877.93)
(0 0 2896.5)
(0 0 2785.38)
(0 0 4069.87)
(0 0 3804.72)
(0 0 2531.17)
(0 0 2155.9)
(0 0 2468.61)
(0 0 2920.91)
(0 0 2818.86)
(0 0 2600.11)
(0 0 2104.59)
(0 0 2252.81)
(0 0 1998.56)
(0 0 2020.57)
(0 0 1567.98)
(0 0 1432.52)
(0 0 1572.04)
(0 0 1286.63)
(0 0 1357.41)
(0 0 1031.21)
(0 0 908.533)
(0 0 975.066)
(0 0 490.972)
(0 0 442.76)
(0 0 -72.8799)
(0 0 486.89)
(0 0 687.915)
(0 0 1247.08)
(0 0 830.126)
(0 0 805.96)
(0 0 651.477)
(0 0 -356.689)
(0 0 -181.547)
(0 0 -91.6575)
(0 0 549.796)
(0 0 -153.376)
(0 0 241.204)
(0 0 -69.4319)
(0 0 -6.4301)
(0 0 -182.433)
(0 0 -44.0786)
(0 0 -233.391)
(0 0 -57.8271)
(0 0 -216.988)
(0 0 213.229)
(0 0 33.7836)
(0 0 448.316)
(0 0 1007.76)
(0 0 380.629)
(0 0 290.034)
(0 0 182.943)
(0 0 -192.468)
(0 0 260.333)
(0 0 1104.19)
(0 0 1740.7)
(0 0 2341.61)
(0 0 2251.51)
(0 0 2959.98)
(0 0 2471.92)
(0 0 2328.6)
(0 0 2043.46)
(0 0 5036.42)
(0 0 7950.18)
(0 0 7783.59)
(0 0 -431.797)
(0 0 -7433.42)
(0 0 -5909.5)
(0 0 -1496.77)
(0 0 -3298.26)
(0 0 -10647.8)
(0 0 -5886.8)
(0 0 -8737.44)
(0 0 -10299.3)
(0 0 -7037.41)
(0 0 -4915.76)
(0 0 2947.35)
(0 0 2637.53)
(0 0 4140.68)
(0 0 3394.86)
(0 0 3014.18)
(0 0 922.656)
(0 0 499.601)
(0 0 -2707.76)
(0 0 2020.9)
(0 0 5802.66)
(0 0 4749.09)
(0 0 6192.48)
(0 0 424.582)
(0 0 1462.47)
(0 0 818.093)
(0 0 627.018)
(0 0 -1715.62)
(0 0 5112.2)
(0 0 4358.53)
(0 0 476.042)
(0 0 2146.64)
(0 0 2257.71)
(0 0 3407.37)
(0 0 4158.6)
(0 0 4810.52)
(0 0 3271.09)
(0 0 2760.64)
(0 0 3333.3)
(0 0 3182.11)
(0 0 2552.91)
(0 0 1852.93)
(0 0 2545.16)
(0 0 2710.07)
(0 0 2751.76)
(0 0 2552.63)
(0 0 2285.48)
(0 0 1906.73)
(0 0 1895.81)
(0 0 1893.44)
(0 0 1502.33)
(0 0 1556.83)
(0 0 1555.98)
(0 0 1379.92)
(0 0 1227.08)
(0 0 1256.02)
(0 0 956.041)
(0 0 978.391)
(0 0 609.703)
(0 0 58.7459)
(0 0 175.831)
(0 0 -211.538)
(0 0 781.212)
(0 0 962.369)
(0 0 1525.68)
(0 0 1029.09)
(0 0 -35.1086)
(0 0 -353.544)
(0 0 -546.584)
(0 0 281.175)
(0 0 64.3866)
(0 0 245.872)
(0 0 -195.558)
(0 0 267.887)
(0 0 -272.971)
(0 0 10.4967)
(0 0 -269.849)
(0 0 -238.787)
(0 0 -481.512)
(0 0 -175.99)
(0 0 -246.766)
(0 0 667.816)
(0 0 797.505)
(0 0 816.064)
(0 0 654.293)
(0 0 272.191)
(0 0 147.135)
(0 0 193.712)
(0 0 1086.5)
(0 0 1400.24)
(0 0 1968.39)
(0 0 2384.2)
(0 0 2910.48)
(0 0 3393.34)
(0 0 3651.31)
(0 0 2900.55)
(0 0 2699.8)
(0 0 6088.31)
(0 0 7751.72)
(0 0 7235.88)
(0 0 -1105.17)
(0 0 -6847.37)
(0 0 -4506.71)
(0 0 -875.337)
(0 0 -8638.31)
(0 0 -15989.8)
(0 0 -11699.3)
(0 0 -10065.3)
(0 0 -7946.49)
(0 0 -5292.56)
(0 0 -1486.43)
(0 0 8205.7)
(0 0 1021.91)
(0 0 -32.5384)
(0 0 1922.14)
(0 0 1632.1)
(0 0 -2390.1)
(0 0 -1512.93)
(0 0 -2649.1)
(0 0 -3170.22)
(0 0 383.333)
(0 0 -759.901)
(0 0 454.163)
(0 0 -4118.2)
(0 0 -661.377)
(0 0 956.907)
(0 0 2983.24)
(0 0 -4543.13)
(0 0 542.72)
(0 0 1133.57)
(0 0 689.535)
(0 0 2806.55)
(0 0 3626.76)
(0 0 3784.85)
(0 0 3467.84)
(0 0 4182.83)
(0 0 3295.32)
(0 0 2295.78)
(0 0 2430.65)
(0 0 2918.91)
(0 0 2483.41)
(0 0 1650.32)
(0 0 2285.85)
(0 0 2509.36)
(0 0 2652.14)
(0 0 2472.73)
(0 0 2096.42)
(0 0 1772.25)
(0 0 1720.28)
(0 0 1593.55)
(0 0 1541.13)
(0 0 1327.32)
(0 0 1385.33)
(0 0 1096.23)
(0 0 1363.15)
(0 0 1137.78)
(0 0 1128.63)
(0 0 761.751)
(0 0 877.262)
(0 0 277.316)
(0 0 237.828)
(0 0 -9.54471)
(0 0 173.8)
(0 0 1052.58)
(0 0 689.325)
(0 0 737.08)
(0 0 -530.079)
(0 0 -392.089)
(0 0 -337.169)
(0 0 -9.47719)
(0 0 260.226)
(0 0 -451.585)
(0 0 -130.469)
(0 0 166.338)
(0 0 -178.104)
(0 0 -237.484)
(0 0 -146.744)
(0 0 -551.917)
(0 0 -519.94)
(0 0 -926.704)
(0 0 -464.969)
(0 0 884.759)
(0 0 368.863)
(0 0 1002.63)
(0 0 900.765)
(0 0 323.887)
(0 0 213.257)
(0 0 842.269)
(0 0 1394.14)
(0 0 1971.35)
(0 0 3125.45)
(0 0 3980.16)
(0 0 3826.98)
(0 0 3206.62)
(0 0 4077.19)
(0 0 3553.61)
(0 0 3569.01)
(0 0 6791.73)
(0 0 7989.09)
(0 0 6197.4)
(0 0 -1639.47)
(0 0 -6153)
(0 0 -2949.91)
(0 0 -1746.68)
(0 0 -13920)
(0 0 -13206.6)
(0 0 -7778.34)
(0 0 -8698.31)
(0 0 -1810.16)
(0 0 -2191.13)
(0 0 -2671.49)
(0 0 -683.824)
(0 0 817.969)
(0 0 -3515.9)
(0 0 -2849.19)
(0 0 899.477)
(0 0 -4430.08)
(0 0 -3420.99)
(0 0 -2768.9)
(0 0 -2089.66)
(0 0 -964.987)
(0 0 -1247.21)
(0 0 -1688.31)
(0 0 -5088.38)
(0 0 -2593.41)
(0 0 -2071.73)
(0 0 3120.05)
(0 0 -2835.55)
(0 0 -2310.87)
(0 0 -1590.6)
(0 0 500.22)
(0 0 3984.61)
(0 0 4350.38)
(0 0 2240.96)
(0 0 1929.51)
(0 0 2599.06)
(0 0 2096.74)
(0 0 1601.54)
(0 0 2031.35)
(0 0 2381.1)
(0 0 2337.56)
(0 0 1686.63)
(0 0 2044.93)
(0 0 2390.01)
(0 0 2416.92)
(0 0 2439.88)
(0 0 1947.51)
(0 0 1647.65)
(0 0 1577.76)
(0 0 1577.45)
(0 0 1365.53)
(0 0 1340.49)
(0 0 1107.28)
(0 0 1248.7)
(0 0 1221.9)
(0 0 1285.74)
(0 0 957.107)
(0 0 1044.58)
(0 0 623.738)
(0 0 313.372)
(0 0 -1001.74)
(0 0 -751.974)
(0 0 430.684)
(0 0 415.598)
(0 0 727.661)
(0 0 -137.888)
(0 0 -605.324)
(0 0 -933.35)
(0 0 -418.331)
(0 0 257.836)
(0 0 -262.015)
(0 0 -263.018)
(0 0 155.815)
(0 0 -117.48)
(0 0 73.4357)
(0 0 -167.671)
(0 0 -283.166)
(0 0 -490.895)
(0 0 -889.652)
(0 0 -537.473)
(0 0 -633.257)
(0 0 804.876)
(0 0 318.593)
(0 0 780.036)
(0 0 1107.73)
(0 0 285.046)
(0 0 333.22)
(0 0 1038.38)
(0 0 2292.43)
(0 0 3222.51)
(0 0 3415.49)
(0 0 4358.57)
(0 0 4671.55)
(0 0 4068.89)
(0 0 3957.83)
(0 0 3611.37)
(0 0 5265.23)
(0 0 7202.1)
(0 0 8868.65)
(0 0 4790.12)
(0 0 -1269.71)
(0 0 -5410.63)
(0 0 -2303.42)
(0 0 -3541.79)
(0 0 -16441.2)
(0 0 -11354.4)
(0 0 -4909.61)
(0 0 -8568.62)
(0 0 -1923.46)
(0 0 -9403.33)
(0 0 -12440.9)
(0 0 -13632.5)
(0 0 -12523.5)
(0 0 -7375.5)
(0 0 -4407.75)
(0 0 -2864.33)
(0 0 -5245.93)
(0 0 -4263.06)
(0 0 -3178.07)
(0 0 -2967.47)
(0 0 -1667.03)
(0 0 -3273.19)
(0 0 -5105.45)
(0 0 -3859.04)
(0 0 -3338.67)
(0 0 -3814.06)
(0 0 1829.96)
(0 0 -2488.71)
(0 0 -5168.55)
(0 0 -4643.35)
(0 0 -192.174)
(0 0 3363.48)
(0 0 3744.42)
(0 0 1175.11)
(0 0 33.3885)
(0 0 772.015)
(0 0 768.599)
(0 0 1144.68)
(0 0 1327.45)
(0 0 1908.54)
(0 0 2055.8)
(0 0 1676.62)
(0 0 1997.11)
(0 0 2112.55)
(0 0 2151.64)
(0 0 2157.77)
(0 0 1818.04)
(0 0 1426.72)
(0 0 1548.52)
(0 0 1453.18)
(0 0 1329.79)
(0 0 1148.46)
(0 0 1096.13)
(0 0 1022.03)
(0 0 1384.83)
(0 0 1145.99)
(0 0 1189.87)
(0 0 903.02)
(0 0 1015.28)
(0 0 21.83)
(0 0 -346.811)
(0 0 -40.7961)
(0 0 -186.586)
(0 0 474.447)
(0 0 -93.2343)
(0 0 -197.936)
(0 0 -992.838)
(0 0 -602.628)
(0 0 249.784)
(0 0 96.6061)
(0 0 534.865)
(0 0 133.857)
(0 0 -133.92)
(0 0 39.2533)
(0 0 -124.338)
(0 0 36.5657)
(0 0 -556.825)
(0 0 -774.053)
(0 0 -787.957)
(0 0 -946.837)
(0 0 -92.7509)
(0 0 260.763)
(0 0 373.036)
(0 0 817.913)
(0 0 1219.09)
(0 0 472.684)
(0 0 832.784)
(0 0 1731.51)
(0 0 2668.53)
(0 0 2952.06)
(0 0 3814.65)
(0 0 3744.67)
(0 0 4105.75)
(0 0 3233.3)
(0 0 4323.84)
(0 0 2869.33)
(0 0 6273.06)
(0 0 7886.68)
(0 0 8313.2)
(0 0 3891.17)
(0 0 -1539.9)
(0 0 -5332.97)
(0 0 -1640.03)
(0 0 -8246.29)
(0 0 -15634)
(0 0 -11458.3)
(0 0 -10281.6)
(0 0 -6113.51)
(0 0 -4796.65)
(0 0 -9602.97)
(0 0 -11119.8)
(0 0 -13657.3)
(0 0 -12599.7)
(0 0 -9653.52)
(0 0 -6507.19)
(0 0 -4601.42)
(0 0 -6023.82)
(0 0 -6115.59)
(0 0 -4581.66)
(0 0 -2386.62)
(0 0 -2755.78)
(0 0 -5784.17)
(0 0 -5553.17)
(0 0 -3384.26)
(0 0 -6670.86)
(0 0 -718.429)
(0 0 499.374)
(0 0 -2510.68)
(0 0 -6634.96)
(0 0 -6988.21)
(0 0 -2302.27)
(0 0 1294.51)
(0 0 1395.22)
(0 0 77.6393)
(0 0 -991.843)
(0 0 -609.857)