/*--------------------------------*- C++ -*----------------------------------*\
| =========                 |                                                 |
| \\      /  F ield         | foam-extend: Open Source CFD                    |
|  \\    /   O peration     | Version:     5.0                                |
|   \\  /    A nd           | Web:         http://www.foam-extend.org         |
|    \\/     M anipulation  |                                                 |
\*---------------------------------------------------------------------------*/
FoamFile
{
    version     2.0;
    format      ascii;
    class       volScalarField;
    location    "0.085";
    object      p;
}
// * * * * * * * * * * * * * * * * * * * * * * * * * * * * * * * * * * * * * //

dimensions      [1 -1 -2 0 0 0 0];

internalField   nonuniform List<scalar> 
4000
(
-1.9712e+06
-1.97014e+06
-1.96497e+06
-1.95628e+06
-1.94453e+06
-1.93048e+06
-1.91784e+06
-1.91162e+06
-1.91155e+06
-1.91048e+06
-1.90619e+06
-1.89999e+06
-1.88316e+06
-1.86202e+06
-1.8121e+06
-1.72062e+06
-1.59132e+06
-1.45131e+06
-1.34299e+06
-1.26532e+06
-1.19414e+06
-1.1356e+06
-1.1026e+06
-1.0795e+06
-1.02943e+06
-947712
-910031
-905152
-870347
-706809
-449778
-280962
-311179
-368426
-352182
-312610
-257553
-212218
-138416
-34083.9
24910.8
21006.4
18714.1
45979.2
65550.8
71365.8
76036.9
86401.5
96907.3
103697
104812
106530
107897
107212
106472
103597
101269
97793.4
93152
88404.6
83464.2
78170.8
71797.9
65444.5
58665.3
53897.4
49565.5
45004.7
41702.1
38405.3
35426.7
33211.2
31803.6
30584.4
28728.8
26461.8
24004.6
21557.2
19292.6
17697.8
17482.6
18736.3
20255.9
20209
18733.5
16148.5
14167.8
12859.9
11814.6
10506.2
8738.8
6327.14
4316.15
4034.46
4334.86
4798.77
5182.19
4519.31
2597.24
1055.24
-1.97062e+06
-1.96953e+06
-1.96438e+06
-1.95575e+06
-1.94394e+06
-1.93018e+06
-1.91783e+06
-1.91201e+06
-1.91246e+06
-1.91083e+06
-1.90485e+06
-1.89555e+06
-1.88086e+06
-1.85814e+06
-1.81204e+06
-1.72413e+06
-1.59489e+06
-1.4527e+06
-1.34499e+06
-1.26882e+06
-1.19784e+06
-1.13828e+06
-1.1051e+06
-1.08472e+06
-1.0372e+06
-954795
-911673
-902300
-870656
-714666
-448408
-276636
-310501
-367515
-349002
-307662
-253060
-210926
-136105
-25577.4
29733.4
23215.9
19269.2
46525.4
66532.4
71533.2
76760.6
86474.3
96751.8
103233
104393
106225
107513
106784
105752
103186
101319
97504.9
92769.3
88100.5
83146.7
78034
71456.9
65255.7
58401.7
53736.2
49521
44887
41632.5
38356.1
35353.8
33144.5
31736.7
30494.6
28617.3
26372.5
23925.7
21513.6
19273.6
17682.4
17417.2
18568.8
20195.7
20109.7
18646.1
16223.1
14279.8
12957.6
11905.4
10670.6
8875.8
6411.43
4410.34
4159.07
4381.9
4805.34
5194.17
4548.31
2544.24
999.682
-1.97032e+06
-1.9692e+06
-1.9641e+06
-1.95548e+06
-1.94365e+06
-1.93012e+06
-1.91781e+06
-1.91141e+06
-1.9118e+06
-1.90991e+06
-1.90206e+06
-1.89079e+06
-1.87733e+06
-1.86393e+06
-1.82351e+06
-1.73444e+06
-1.60037e+06
-1.4531e+06
-1.34279e+06
-1.26951e+06
-1.20541e+06
-1.14468e+06
-1.10894e+06
-1.08953e+06
-1.04295e+06
-952484
-896407
-897319
-885440
-739840
-467504
-276055
-313202
-366898
-351841
-305036
-249723
-214829
-137559
-19776.8
35993.9
22154.9
17249.5
47822.6
66521
71402
78133.7
87867.2
96796.5
102951
104547
106275
107313
106486
105503
102982
101431
97317.6
92521.1
87885.7
82879.3
77685.5
71293.2
65200.3
58178.3
53637.7
49453.2
44852.3
41543.4
38308.4
35316
32990.6
31655.2
30449.2
28541.8
26318.5
23858.3
21441.1
19207.7
17607.1
17402.9
18547.1
20073.7
20134.8
18629.3
16285.9
14345.2
12970.7
12027.9
10853.8
9010.93
6384.96
4386.45
4216.82
4427.59
4841.03
5254.14
4561.3
2517.57
957.149
-1.9703e+06
-1.96912e+06
-1.96416e+06
-1.95561e+06
-1.94388e+06
-1.93039e+06
-1.91758e+06
-1.90964e+06
-1.90884e+06
-1.90752e+06
-1.89695e+06
-1.88465e+06
-1.87214e+06
-1.87008e+06
-1.83535e+06
-1.74158e+06
-1.6046e+06
-1.45228e+06
-1.33951e+06
-1.2701e+06
-1.21244e+06
-1.14957e+06
-1.11183e+06
-1.09312e+06
-1.04276e+06
-943411
-875206
-885765
-909544
-769203
-491621
-294712
-319425
-365415
-354658
-302226
-244976
-217283
-139730
-18836.2
39934.5
18994.9
16194.2
49537.3
65833.4
70420
79303.4
90646.2
97023.5
102187
105070
106821
107522
106553
105689
103245
101458
97256.8
92391.5
87753.4
82725.6
77414
71179.3
65048.8
58253.2
53719.3
49455.1
44870.6
41535
38363.3
35171
32840.3
31608
30426.5
28498.2
26297.4
23816.4
21328.3
19091.5
17501.3
17389.6
18581.8
20142.1
20211.2
18680
16340.5
14343.8
12901.9
12093
11103.7
9076.76
6335.72
4322.42
4152.1
4474.29
4916.9
5332.39
4620.46
2424.75
794.748
-1.97059e+06
-1.96933e+06
-1.96448e+06
-1.956e+06
-1.94427e+06
-1.93072e+06
-1.91681e+06
-1.90651e+06
-1.90363e+06
-1.90273e+06
-1.89241e+06
-1.87754e+06
-1.86798e+06
-1.87521e+06
-1.84342e+06
-1.74569e+06
-1.60931e+06
-1.44916e+06
-1.32996e+06
-1.26227e+06
-1.21379e+06
-1.14958e+06
-1.11636e+06
-1.10227e+06
-1.03414e+06
-918337
-848150
-862387
-918701
-809097
-522082
-305155
-305079
-358855
-355188
-296801
-239591
-221115
-146082
-21906.2
38777.8
17946.7
17527.6
51469.6
65005.9
69084.4
80397.8
93571.2
96296.3
101235
105331
107666
107876
106977
106182
103683
101766
97402.2
92414.1
87751
82674.3
77264.5
71152.8
65007.3
58612.8
53781.6
49424.7
44997.9
41616.2
38288.1
34978.6
32745.5
31590.9
30377.2
28433.6
26244.6
23775.5
21253.4
18936.4
17411.3
17367.1
18698.3
20411.5
20445.3
18652.2
16343.2
14299.3
12790
12073.4
11233.6
9104.14
6193.25
4340.85
4099.07
4500.92
5054.06
5436.63
4743.24
2353.78
641.184
-1.97111e+06
-1.9696e+06
-1.96493e+06
-1.95646e+06
-1.94474e+06
-1.93096e+06
-1.91575e+06
-1.90268e+06
-1.89831e+06
-1.89828e+06
-1.88892e+06
-1.87239e+06
-1.86968e+06
-1.88184e+06
-1.84348e+06
-1.7413e+06
-1.61558e+06
-1.45539e+06
-1.31994e+06
-1.24729e+06
-1.20976e+06
-1.14603e+06
-1.1178e+06
-1.1155e+06
-1.02986e+06
-893585
-824961
-845472
-921168
-841980
-546280
-306079
-284577
-339182
-346410
-291519
-237530
-230681
-149777
-16918.6
36300.7
21222.5
21441.4
54137.3
65205.2
68219.2
81281
95314.8
95778.9
100946
105392
108336
107997
107493
106804
104160
102318
97783.9
92570.6
87880.9
82722.3
77206.5
71197.3
65096.5
58807.5
54063.3
49472.2
45156.9
41728.8
38092.8
34913.9
32793.1
31607.2
30340.5
28424.1
26245.3
23730
21125.1
18784.3
17282.5
17415.8
18941.9
20681.3
20724.5
18723.7
16233.7
14176.2
12622.6
11959.6
11279.9
9055.09
6099.3
4347.35
4049.4
4548.69
5208.27
5620.25
4904.36
2230.49
369.385
-1.97172e+06
-1.96991e+06
-1.96524e+06
-1.95689e+06
-1.94508e+06
-1.93094e+06
-1.91414e+06
-1.89897e+06
-1.89323e+06
-1.89421e+06
-1.88892e+06
-1.87071e+06
-1.87189e+06
-1.88598e+06
-1.84285e+06
-1.73663e+06
-1.62901e+06
-1.47416e+06
-1.31158e+06
-1.24095e+06
-1.20782e+06
-1.14437e+06
-1.11984e+06
-1.12021e+06
-1.03083e+06
-882667
-805966
-836300
-922177
-869479
-572982
-293321
-267082
-322780
-335459
-287696
-238775
-239305
-150602
-10690.3
34642.9
20171.9
26649.1
58155.7
67946.4
69482.9
82435.8
96020.9
96669.2
101478
105879
108525
107932
107871
107350
104824
102654
98270.2
92827.9
88101.8
82914.3
77262.2
71314.9
65272.7
58963.5
54150.7
49673.1
45363.5
41765.6
38027.2
34965.5
32893.1
31647.3
30336.8
28397.4
26246
23697.1
21006.9
18616.8
17161.8
17504.7
19231.2
20987
20998.6
18730.6
16021.1
14009.5
12437.3
11776.9
11263.5
9066.19
6154.36
4479.62
3909.15
4614.14
5359.32
5810.12
5085.16
2033.5
133.325
-1.97227e+06
-1.97016e+06
-1.96532e+06
-1.95677e+06
-1.94509e+06
-1.93035e+06
-1.91204e+06
-1.8954e+06
-1.88929e+06
-1.89049e+06
-1.89087e+06
-1.87146e+06
-1.87258e+06
-1.88506e+06
-1.84115e+06
-1.73302e+06
-1.64434e+06
-1.50824e+06
-1.31797e+06
-1.2464e+06
-1.2135e+06
-1.14233e+06
-1.12173e+06
-1.11891e+06
-1.02285e+06
-883198
-816612
-838186
-909762
-881830
-588157
-274764
-267707
-332979
-330660
-284956
-238744
-249196
-156835
-13291.9
29335.3
17458.6
31620.7
60365.7
72603.9
73478.4
83408.9
96774.6
98827.8
103010
107235
108223
107423
108327
107996
105401
103034
98752.7
93446.9
88177.1
83040.8
77388.2
71485.8
65534.4
59133
54395
49709.8
45380.8
41861.4
38069.2
35174.9
33014.6
31632.8
30360.7
28423.9
26262
23674.4
20910.9
18487
17050.2
17526.8
19482.1
21256.2
21114.4
18614.4
15782.7
13774.2
12233.8
11425.4
11189.5
9214.96
6338.09
4702.29
3917.64
4638.39
5566.28
5994.63
5242.62
1873.35
-178.59
-1.97241e+06
-1.97026e+06
-1.96496e+06
-1.95615e+06
-1.94468e+06
-1.92968e+06
-1.91057e+06
-1.89187e+06
-1.88531e+06
-1.88684e+06
-1.89281e+06
-1.87228e+06
-1.87323e+06
-1.88143e+06
-1.83874e+06
-1.72532e+06
-1.63355e+06
-1.53083e+06
-1.33535e+06
-1.24671e+06
-1.21593e+06
-1.1384e+06
-1.1231e+06
-1.11937e+06
-1.01517e+06
-885268
-832056
-838583
-885410
-879546
-601601
-272026
-290069
-360370
-326933
-281804
-239631
-254639
-175199
-20427.2
23208.3
14241.5
30842.1
59821.7
74417.7
77101.3
84612.9
96363.5
101433
105085
108271
108181
107287
108656
108586
105863
103455
99309.8
93838.3
88447.4
83280.3
77528.4
71680.9
65874.3
59523.3
54524.8
49666.1
45420.5
41926.5
38226.6
35404.7
33117.3
31596.4
30331
28485.5
26287.8
23661.5
20850.2
18356.3
16986.5
17584
19735.3
21474
21042.3
18368.7
15504.3
13407.7
11786.2
11034.5
10996.7
9252.95
6584.64
4982.59
3908.73
4757.3
5719.89
6105.95
5367.99
1745.59
-391.518
-1.97189e+06
-1.96991e+06
-1.9643e+06
-1.95496e+06
-1.94371e+06
-1.92856e+06
-1.90833e+06
-1.88939e+06
-1.88304e+06
-1.88456e+06
-1.89435e+06
-1.87243e+06
-1.87193e+06
-1.87682e+06
-1.8401e+06
-1.71793e+06
-1.60329e+06
-1.53812e+06
-1.34677e+06
-1.24592e+06
-1.21407e+06
-1.12592e+06
-1.12492e+06
-1.12491e+06
-1.01204e+06
-881602
-831305
-831793
-871481
-882998
-628661
-303862
-322579
-386699
-323673
-278227
-240335
-254652
-196072
-28186.8
14124.2
9765.51
27557.6
57298.3
71765.8
78355.7
85105.6
95161
103417
105243
108315
108653
107459
108932
109112
106226
103872
99932.3
94283.7
88855.1
83596.2
77649.5
71916.1
66304.3
59966.7
54687.9
49701
45506.6
42017.4
38393.5
35636.8
33213.7
31535.6
30304
28582.4
26337.9
23662.4
20818.5
18287
16942.7
17708
19905.5
21507.1
20910.4
17981.7
15124.2
12981
11353.7
10868.5
10886
9314.03
6668.83
5204.85
4050.04
4868.26
5852.99
6226.1
5494.58
1730.52
-653.097
-1.97076e+06
-1.96905e+06
-1.96333e+06
-1.95335e+06
-1.9419e+06
-1.92691e+06
-1.9066e+06
-1.88807e+06
-1.88174e+06
-1.88291e+06
-1.89644e+06
-1.87338e+06
-1.87051e+06
-1.87249e+06
-1.83865e+06
-1.70567e+06
-1.5732e+06
-1.54409e+06
-1.35556e+06
-1.23935e+06
-1.20695e+06
-1.11806e+06
-1.12955e+06
-1.12812e+06
-1.01575e+06
-887617
-830726
-821136
-866734
-897531
-657010
-362698
-381848
-410145
-321746
-277330
-243727
-248602
-199126
-31598.3
4023.74
5056.79
22859.4
54494.8
68519.7
78493.2
87161.5
94191.8
102460
104147
108452
109240
107582
109174
109556
106475
104257
100535
94818.7
89397.7
83990.3
77735
72121
66832.5
60427.9
54919.7
49808.1
45751.8
42095.3
38389.8
35864.7
33362
31509.3
30228.3
28706.7
26393.8
23683.9
20862
18265.5
16957.7
17808.1
20003.1
21449.8
20585
17407.4
14731.9
12546.4
11122.9
10815.5
10743.9
9281.2
6708.26
5411.67
4201.79
5092.16
5948.31
6252.95
5665.43
1769.88
-817.107
-1.96899e+06
-1.96772e+06
-1.96182e+06
-1.95155e+06
-1.94e+06
-1.92485e+06
-1.90554e+06
-1.88757e+06
-1.88118e+06
-1.88153e+06
-1.89879e+06
-1.87656e+06
-1.86902e+06
-1.87361e+06
-1.83323e+06
-1.69652e+06
-1.5619e+06
-1.55064e+06
-1.35829e+06
-1.23613e+06
-1.20521e+06
-1.11965e+06
-1.12797e+06
-1.12759e+06
-1.03573e+06
-908622
-831151
-814757
-866203
-905111
-678911
-406769
-436501
-424839
-319230
-278659
-250363
-239762
-180116
-26654
-4977.08
-730.639
17833.4
51167.6
65818.6
77786.9
89770.9
95188.4
100606
103666
108435
108778
107644
109319
109528
106767
104646
101152
95335.8
90013.5
84529.5
77835.2
72272.9
67352.3
60939
55047
50079.5
46021.7
42052.3
38480.7
36114.7
33490.2
31495.8
30269.9
28775.1
26483.8
23727.4
20962
18375
17018.2
17852.1
19991
21307.1
20041
16715.2
14175.3
12079.9
10914.9
10583.5
10553.2
9198.43
6678.52
5583.3
4399.23
5242.48
6011.53
6293.93
5869.44
1892.68
-929.106
-1.96668e+06
-1.96614e+06
-1.95991e+06
-1.9495e+06
-1.93793e+06
-1.9232e+06
-1.90525e+06
-1.8878e+06
-1.88152e+06
-1.88071e+06
-1.90008e+06
-1.88393e+06
-1.86599e+06
-1.8773e+06
-1.82503e+06
-1.69002e+06
-1.56091e+06
-1.5499e+06
-1.36456e+06
-1.23446e+06
-1.20443e+06
-1.1156e+06
-1.11294e+06
-1.11554e+06
-1.05101e+06
-935962
-828756
-809380
-867585
-903409
-691366
-433723
-462034
-421366
-314220
-287210
-267818
-232191
-150562
-22192.6
-15523.6
-9190.63
12550.9
46778.7
62806.9
75627
91820.2
97259.2
99742.8
104024
108432
108750
107534
109112
109807
107096
105100
101836
95869
90663.5
84841.9
78176.5
72477.7
67634.6
61438.6
55385.8
50432.2
46153.7
42137.5
38786.9
36295.8
33516.3
31621.9
30288.5
28894.6
26606.3
23789.8
21151.6
18503.5
17043.9
17860.3
19875
20977.3
19290.6
15955.8
13369.6
11266
10501.2
10233.4
10278.8
9057.28
6574.56
5659.54
4559.62
5442.91
6025.04
6320.33
6072.06
2105.21
-952.181
-1.96408e+06
-1.96431e+06
-1.9578e+06
-1.94719e+06
-1.93595e+06
-1.92208e+06
-1.90554e+06
-1.88892e+06
-1.88294e+06
-1.88198e+06
-1.89949e+06
-1.89118e+06
-1.86155e+06
-1.8743e+06
-1.81059e+06
-1.68358e+06
-1.56652e+06
-1.54273e+06
-1.36999e+06
-1.23228e+06
-1.19913e+06
-1.10702e+06
-1.10154e+06
-1.11441e+06
-1.05105e+06
-953828
-827685
-796462
-867201
-899654
-691426
-450171
-473036
-415976
-311750
-302432
-288179
-226240
-130144
-22952.6
-21373.9
-20483
5865.78
42040.1
59240
73757.9
93194.5
98581.1
99426.6
104437
108537
108884
108057
109257
110101
107289
105629
102486
96667.4
91151
85111.6
78543.9
72682.1
67907.2
61895.7
55786.4
50623.9
46370.8
42438.9
39017.8
36427.7
33636.1
31692.5
30358.1
29019.4
26771.6
23853.3
21434.2
18695.9
17008.5
17718.9
19660.7
20572.3
18311.5
15095.4
12491.8
10340.3
10027.9
9827.19
10005.4
8920.86
6452.31
5604.94
4702.53
5611.77
6049.04
6290.94
6277.78
2398.99
-849.19
-1.96136e+06
-1.96245e+06
-1.95557e+06
-1.94494e+06
-1.93423e+06
-1.9214e+06
-1.90625e+06
-1.89091e+06
-1.88479e+06
-1.88479e+06
-1.89915e+06
-1.89361e+06
-1.8567e+06
-1.86508e+06
-1.79345e+06
-1.66821e+06
-1.57971e+06
-1.54468e+06
-1.36892e+06
-1.22775e+06
-1.18684e+06
-1.10196e+06
-1.10125e+06
-1.11371e+06
-1.04267e+06
-962098
-830295
-783295
-864517
-900384
-689163
-462792
-480684
-411798
-309981
-315134
-300537
-225894
-130353
-21982.1
-22938.2
-37814.2
-3969.55
35207.6
55394.2
73005
94129.8
99320.9
99312.9
104886
108482
109425
108520
108900
110661
107536
106233
103308
97290.8
91605.1
85472.1
78611.1
73014.4
68453.8
62195.4
55982.6
50893.5
46657.2
42783.6
39360.4
36479.6
33737.1
31760.8
30411.9
29124.7
26942.9
23957.9
21769.1
18941.8
16971.4
17495.4
19422.1
20019.3
17516.2
14223.9
11615.5
9670.46
9700.47
9467.39
9688.39
8765.5
6398.2
5474.86
4847.98
5758.21
6074.19
6221.12
6521.22
2813.26
-632.968
-1.95865e+06
-1.96059e+06
-1.95339e+06
-1.94281e+06
-1.93258e+06
-1.921e+06
-1.90729e+06
-1.89328e+06
-1.88698e+06
-1.88793e+06
-1.89911e+06
-1.89341e+06
-1.85653e+06
-1.85419e+06
-1.78068e+06
-1.66496e+06
-1.5943e+06
-1.54433e+06
-1.36779e+06
-1.22353e+06
-1.172e+06
-1.09514e+06
-1.10716e+06
-1.10964e+06
-1.03634e+06
-965618
-829112
-775329
-861168
-894561
-681026
-472078
-486851
-408685
-312565
-327337
-308666
-226928
-135989
-28358.1
-21431.1
-48883.9
-16771.8
24697.8
50540.5
73841.9
95208.6
100089
99430.9
104850
108119
109711
109072
109155
111148
108337
106852
103677
98167.8
92175.2
85662.8
78753.7
73395.3
68878
62720
56331.1
51075.5
46938.1
43098.9
39595.3
36630.5
33822.3
31825.9
30485.7
29190.4
27036.8
24150.6
22224.9
19223.8
16945.3
17325.3
19192.2
19631.7
16627.8
13381
10747.7
9115.84
9306.01
9149.2
9425.73
8536.19
6349.46
5327.34
4950.16
5907.79
6069.05
6207.12
6734.43
3304.63
-273.194
-1.95599e+06
-1.9588e+06
-1.9513e+06
-1.94093e+06
-1.93139e+06
-1.92098e+06
-1.90868e+06
-1.89563e+06
-1.88973e+06
-1.89118e+06
-1.8996e+06
-1.89442e+06
-1.86164e+06
-1.84363e+06
-1.77132e+06
-1.67323e+06
-1.60061e+06
-1.53756e+06
-1.37776e+06
-1.22489e+06
-1.15668e+06
-1.09433e+06
-1.109e+06
-1.09702e+06
-1.03452e+06
-967308
-825192
-768174
-856697
-885567
-669582
-473209
-488490
-414323
-318163
-333158
-309066
-228058
-145173
-40520.5
-14882.3
-50127.1
-27939.2
17275.7
46358.2
74200.4
96219.6
101389
99750.4
104637
107790
110097
109460
109800
112164
109456
107161
103869
99063.6
92788.6
85877
79002.9
73722.3
69180.3
63277.9
56614.7
51380
47199.8
43389.8
39820.1
36699.2
33944.6
31834.1
30569.8
29244.3
27016.7
24400.3
22805
19568.6
16834.1
17163.9
19106.3
19362.8
15721.8
12544.4
9924.84
8480.9
8778.22
8821.48
9292.33
8328.7
6336.02
5254.19
5059.63
5993.84
6046.35
6159.64
7049.45
3825.04
168.637
-1.95351e+06
-1.95718e+06
-1.94955e+06
-1.9395e+06
-1.93035e+06
-1.9207e+06
-1.91002e+06
-1.89847e+06
-1.89287e+06
-1.89469e+06
-1.90186e+06
-1.89689e+06
-1.86885e+06
-1.83282e+06
-1.76791e+06
-1.68823e+06
-1.59182e+06
-1.53022e+06
-1.39652e+06
-1.24241e+06
-1.14727e+06
-1.09724e+06
-1.10414e+06
-1.0852e+06
-1.03654e+06
-963700
-812815
-761641
-852302
-880951
-660304
-473720
-487130
-421483
-324498
-332399
-302960
-230293
-156182
-46165.6
-5363.61
-45322.8
-34466.4
15752
44771.1
73545.5
97099.3
103008
100351
104027
107410
110639
110005
110397
113031
110372
107544
104145
99799.1
93461.2
86190.8
79328.4
73964.4
69465.5
63679.2
56956.1
51698.1
47492.8
43714.2
40064.6
36787.9
34038.7
31893.2
30601.1
29159.7
26793.1
24691.5
23316.5
20099.9
16904
17005.6
19385.5
19078.3
14817.5
11574.9
8995.51
7633.06
8146.47
8478.35
9182.25
8170.01
6342.71
5266.83
5256.24
5990.64
5928.8
6103.37
7397
4384.48
705.064
-1.9513e+06
-1.95571e+06
-1.94819e+06
-1.93839e+06
-1.92944e+06
-1.92067e+06
-1.91192e+06
-1.90184e+06
-1.89582e+06
-1.89765e+06
-1.90634e+06
-1.90029e+06
-1.87581e+06
-1.8206e+06
-1.75763e+06
-1.70828e+06
-1.58819e+06
-1.52649e+06
-1.41746e+06
-1.26552e+06
-1.15211e+06
-1.10454e+06
-1.10022e+06
-1.08289e+06
-1.04188e+06
-960483
-799305
-759727
-849839
-870991
-652697
-479141
-485964
-426576
-329545
-326901
-296847
-238236
-167846
-45977.5
984.277
-37758.2
-37860.6
11628.2
43818.6
71844.6
97976.7
103885
101752
104146
107015
111098
110680
110608
114098
111424
107754
104493
100550
94150.9
86523
79667.5
74172.8
69569.8
64154.1
57373.8
51996.9
47764.2
44032.7
40305.4
36889.7
34135.7
31947.6
30647.3
28879
26099.8
24869.2
24025.7
20744.4
17214.1
17456
20061.3
18819.1
13982
10605.7
7915.54
6777.59
7500.14
8134.58
9107.08
8053.58
6447.34
5419.18
5413.33
6031.77
5687.71
6032.23
7747.38
4904.7
1242.49
-1.94927e+06
-1.95439e+06
-1.9471e+06
-1.93774e+06
-1.92945e+06
-1.92129e+06
-1.91401e+06
-1.9054e+06
-1.89946e+06
-1.90053e+06
-1.9113e+06
-1.90491e+06
-1.88044e+06
-1.80963e+06
-1.75167e+06
-1.72698e+06
-1.59954e+06
-1.52655e+06
-1.43544e+06
-1.27038e+06
-1.15833e+06
-1.11057e+06
-1.09588e+06
-1.08092e+06
-1.04008e+06
-955426
-797790
-762220
-852734
-858490
-643987
-487560
-484370
-430018
-335963
-326244
-294313
-248382
-180788
-44493.3
3581.18
-30565.5
-37733.2
6827.11
40772.7
69242.5
99073.8
104159
102822
104715
107571
111679
111207
111022
115413
112536
108182
104801
100988
94763.8
87047.1
80044.2
74359.1
69762
64459.9
57756
52297
47979.7
44305.3
40546.1
37001
34218.8
31936.7
30552.5
28262.1
25160.2
24953.7
24780.7
21481.8
17834.9
18559.5
21053.9
18666.6
13271.2
9682.74
6984.61
6125.89
6849.59
7794.38
9075.78
7981.59
6601.71
5686.33
5522.64
6014.77
5425.64
5931.3
7961.15
5410.24
1837.23
-1.94746e+06
-1.95352e+06
-1.94674e+06
-1.93771e+06
-1.9296e+06
-1.92244e+06
-1.91648e+06
-1.90886e+06
-1.9028e+06
-1.90361e+06
-1.91614e+06
-1.91171e+06
-1.88246e+06
-1.80149e+06
-1.76405e+06
-1.73866e+06
-1.6094e+06
-1.53077e+06
-1.44629e+06
-1.26257e+06
-1.16474e+06
-1.11576e+06
-1.09293e+06
-1.07433e+06
-1.03056e+06
-942363
-806388
-779562
-853937
-842002
-636676
-495254
-483921
-432143
-342979
-329845
-301114
-262748
-192466
-44407.5
-1229.28
-25640.9
-34630.9
4210.14
34414.3
67128
100435
104260
103701
105665
108396
112043
111748
111851
116781
113526
108490
105041
101420
95338.9
87595.1
80474.6
74535.3
69985.2
64707
58097.1
52602
48201.1
44572
40761.8
37110.9
34306.2
31856
30295.3
27198.8
24157.1
25021.6
25734.5
22276
18857.6
20237.2
21856.9
18559
12794.1
8820.33
6189.37
5568.7
6240.63
7468.73
9038.21
7953.54
6841.44
6031.98
5610.93
5962.02
5121.34
5823.65
8161.25
5962.95
2424.66
-1.94582e+06
-1.95299e+06
-1.94705e+06
-1.93787e+06
-1.92984e+06
-1.92376e+06
-1.91894e+06
-1.91204e+06
-1.90581e+06
-1.90649e+06
-1.92081e+06
-1.92267e+06
-1.88183e+06
-1.79744e+06
-1.7821e+06
-1.74067e+06
-1.61143e+06
-1.53876e+06
-1.45224e+06
-1.26191e+06
-1.17439e+06
-1.12074e+06
-1.08888e+06
-1.06218e+06
-1.01872e+06
-931882
-812374
-795638
-852174
-824388
-634824
-502173
-484992
-433956
-350172
-335946
-311082
-278192
-203556
-40552.3
-6367.33
-27625.4
-32698.4
820.07
25701.8
64252.8
102052
103670
104304
106785
109322
112336
112242
112959
118169
114450
108870
105247
101644
95819
88094.5
80755.2
74814.7
70319.3
64849.8
58394.5
52886.8
48418.5
44819.7
40947.4
37245
34399.2
31738.2
29715.1
26069.4
22660.4
24573.5
26683
23216.6
20341.7
22055.2
22414.2
18421.3
12429.3
8067.75
5291.83
4874.42
5649.66
7142.91
8939.9
8017.49
7061.25
6400.92
5649.02
5828.79
4880.07
5770.56
8326.85
6558.35
3003.44
-1.94449e+06
-1.95283e+06
-1.94767e+06
-1.93811e+06
-1.93024e+06
-1.92511e+06
-1.92129e+06
-1.91495e+06
-1.90856e+06
-1.90908e+06
-1.92578e+06
-1.93815e+06
-1.87861e+06
-1.79393e+06
-1.80044e+06
-1.73547e+06
-1.60183e+06
-1.54758e+06
-1.45566e+06
-1.27139e+06
-1.18187e+06
-1.12427e+06
-1.08348e+06
-1.05014e+06
-1.00594e+06
-921132
-817107
-808118
-848900
-808233
-636937
-508038
-486972
-435633
-356302
-342083
-318563
-293136
-215177
-40374.9
-7864.87
-33763.1
-31953.8
-3934.98
17678
59027.5
101216
102838
105034
107739
109899
112392
112782
114352
119555
115312
109143
105510
101831
96219.4
88536.2
80980.6
75091.7
70535.1
65043.6
58766.6
53222.3
48523
44885.4
41155.7
37538.2
34388.1
31528.5
29061.8
24643.8
20524.5
23680.1
27469.4
24291.4
22006.9
23523.4
22880.9
18308.3
12144.5
7371.62
4347.11
4083.02
5077.26
6793.71
8814.76
8123.77
7370.52
6712.54
5637.12
5602.03
4575.11
5751.67
8549.84
7039.1
3428.42
-1.94348e+06
-1.95299e+06
-1.94853e+06
-1.93837e+06
-1.93066e+06
-1.92647e+06
-1.92355e+06
-1.91764e+06
-1.91108e+06
-1.91149e+06
-1.93176e+06
-1.95724e+06
-1.8748e+06
-1.78892e+06
-1.81539e+06
-1.73658e+06
-1.58919e+06
-1.55271e+06
-1.45651e+06
-1.28169e+06
-1.18474e+06
-1.1262e+06
-1.07882e+06
-1.04021e+06
-996033
-915767
-820795
-820514
-848497
-789159
-637565
-512775
-487175
-435581
-359533
-347688
-323318
-305355
-227816
-44798.7
-9810.7
-42594.7
-34659.4
-8372.79
11539.3
53076.8
96656.9
102485
105498
108676
109957
112276
113466
116072
120901
115936
109542
105834
102010
96617.3
88954.6
81202.9
75262.6
70751.7
65349.9
59064.9
53470
48676.5
44910.1
41341.2
37823.7
34394
31344.4
28384.7
22949.4
18628.9
22807.2
28066.9
25460
23466.5
24462
23206.4
18188.5
11980.9
6732.65
3527.21
3339.07
4537.97
6481.36
8708.7
8305.19
7688.92
7019.09
5588.11
5248.85
4376.13
5779.99
8792.01
7457.7
3796.7
-1.94266e+06
-1.95301e+06
-1.94938e+06
-1.93876e+06
-1.93118e+06
-1.92791e+06
-1.92545e+06
-1.91995e+06
-1.91325e+06
-1.9137e+06
-1.93901e+06
-1.97585e+06
-1.87088e+06
-1.79262e+06
-1.82712e+06
-1.73715e+06
-1.57917e+06
-1.55314e+06
-1.45475e+06
-1.2895e+06
-1.18598e+06
-1.12521e+06
-1.07393e+06
-1.03163e+06
-989929
-912907
-825764
-831433
-850584
-771435
-635451
-516225
-484632
-431809
-358597
-352484
-330905
-315417
-241039
-50166.3
-12295.8
-51709.9
-39598.8
-9158.51
5723.19
46821.2
89465.3
101246
105993
109647
109532
112410
114862
117974
122048
116710
110087
106145
102208
97015.1
89402.3
81420.6
75379.8
70970.4
65657
59223.1
53682.8
48903.3
44939.7
41470.4
38075.3
34434.7
31084.7
28102.1
21169.3
16882
21828.3
28608.4
26692
24641.2
24748
23310.9
17980
11898.9
6111.53
2788.17
2657.69
4013.68
6213.77
8618.45
8466.07
8059.57
7268.31
5497.14
4905.26
4326.08
5820.86
9040.47
7889.59
4068.3
-1.94203e+06
-1.95319e+06
-1.94991e+06
-1.93903e+06
-1.93173e+06
-1.92937e+06
-1.92709e+06
-1.92166e+06
-1.91543e+06
-1.91608e+06
-1.94734e+06
-1.99026e+06
-1.86687e+06
-1.80089e+06
-1.83521e+06
-1.73317e+06
-1.57049e+06
-1.55009e+06
-1.45251e+06
-1.29373e+06
-1.18525e+06
-1.12367e+06
-1.06885e+06
-1.02381e+06
-988460
-911277
-828367
-843825
-854477
-753488
-630509
-520199
-482505
-427701
-353995
-352191
-340673
-327819
-252524
-57634.4
-15281.4
-58538.5
-43919.4
-10696.8
2219.64
42554.1
82463.3
98985.8
106911
109714
109540
113105
116970
120101
123281
117633
110722
106491
102423
97395
89809.7
81599.2
75431.6
71151.7
65847.9
59362.2
53955.8
49122.9
44930
41573.8
38340.5
34497.9
30816.5
27879.5
19716.3
15364.8
21049
29054
27722.9
25630.7
24465
22746.9
17788.6
11871
5497.82
2136.21
2014.68
3510.78
6006.47
8496.57
8603.12
8403.49
7434.44
5458.43
4545.09
4376.81
5922.76
9274.83
8317.08
4236.59
-1.94169e+06
-1.95325e+06
-1.9501e+06
-1.93931e+06
-1.93236e+06
-1.93064e+06
-1.92851e+06
-1.92303e+06
-1.91753e+06
-1.91898e+06
-1.95624e+06
-1.99884e+06
-1.86268e+06
-1.80531e+06
-1.83668e+06
-1.72305e+06
-1.56332e+06
-1.54518e+06
-1.44926e+06
-1.29545e+06
-1.18481e+06
-1.12162e+06
-1.06463e+06
-1.01826e+06
-988565
-911432
-828835
-855466
-860843
-735517
-620840
-527413
-482263
-422434
-347397
-346865
-349761
-340521
-263339
-60904
-16986.9
-63254.3
-48007.5
-15109.6
932.276
38542.3
77335.2
96035.6
107894
110225
109931
114069
119220
121950
124296
118635
111407
106783
102689
97754.3
90204
81699.9
75450
71225
66004.5
59567.9
54168.7
49329.8
44942.5
41606
38636.7
34646.2
30688.5
27859.8
18768.6
14413.2
20743
29224.9
28726.4
26380.2
23637.2
21888.4
17454.9
11743.4
5050.67
1597.53
1471.88
3083.63
5807.22
8350.17
8760.8
8697.12
7549.57
5433.84
4149.96
4553.54
6177.75
9553.76
8758.1
4321.67
-1.9415e+06
-1.95316e+06
-1.95002e+06
-1.93954e+06
-1.93293e+06
-1.93165e+06
-1.92979e+06
-1.92464e+06
-1.91971e+06
-1.92216e+06
-1.96349e+06
-2.00064e+06
-1.85716e+06
-1.80574e+06
-1.83298e+06
-1.70887e+06
-1.55758e+06
-1.54023e+06
-1.44404e+06
-1.29512e+06
-1.18445e+06
-1.11934e+06
-1.06112e+06
-1.0144e+06
-994053
-920984
-831743
-858723
-862317
-721423
-607010
-535335
-483863
-417032
-342290
-338285
-355467
-349784
-267921
-58668.7
-15790.9
-63619.4
-53193.8
-21608.1
-589.651
34632.5
73974.4
94134.8
108496
112051
110030
115330
120814
123363
124980
119507
112046
107037
102959
98123.2
90561
81703.3
75392.7
71217.5
66175
59797
54368.3
49527.7
44942.8
41630.8
38874
34878.8
30944.8
28085.1
18289.6
13503
20314.8
29250.3
29768
26975.4
22622.8
20707.3
17162.7
11729.6
4938.22
1160.5
996.485
2727.09
5598.28
8228.05
8848.23
8966.58
7673.53
5392.43
3911.18
4787.12
6595.84
9909.93
9232.82
4363.37
-1.94145e+06
-1.95293e+06
-1.94975e+06
-1.93965e+06
-1.93356e+06
-1.9326e+06
-1.93098e+06
-1.92657e+06
-1.92238e+06
-1.92531e+06
-1.96633e+06
-1.99656e+06
-1.84995e+06
-1.80422e+06
-1.82808e+06
-1.69298e+06
-1.55248e+06
-1.53645e+06
-1.43774e+06
-1.29404e+06
-1.1842e+06
-1.1169e+06
-1.06064e+06
-1.01785e+06
-997827
-929256
-831771
-856093
-861296
-720428
-592980
-539316
-485158
-410348
-341042
-333884
-355642
-350957
-265437
-60790.9
-18106.7
-63456.5
-59996.6
-27555.5
-3088.56
32658.5
68834.7
90355.8
107778
113739
111267
117121
121929
124546
125461
120441
112644
107172
103208
98509.3
90928.1
81673.6
75238.7
71175.5
66387.3
60055.4
54631.5
49728
44884.8
41601.1
39156.3
35279.8
31547.1
28379.9
18215.2
12624
19535
29340.2
30728.1
27237.2
21983.7
19557.4
17028.5
12098.7
5066.16
916.101
642.689
2467.09
5419.18
8084.14
8907.28
9151.72
7716.08
5275.22
3877.23
5055.29
7055.12
10320.2
9777.18
4409.62
-1.9414e+06
-1.95265e+06
-1.94925e+06
-1.9397e+06
-1.93424e+06
-1.93349e+06
-1.93216e+06
-1.92832e+06
-1.92548e+06
-1.92905e+06
-1.96445e+06
-1.98801e+06
-1.84149e+06
-1.80044e+06
-1.82472e+06
-1.67632e+06
-1.54652e+06
-1.53437e+06
-1.43037e+06
-1.29143e+06
-1.18197e+06
-1.11601e+06
-1.06134e+06
-1.02004e+06
-998324
-929684
-829769
-850446
-860224
-716253
-572096
-534715
-488643
-405103
-341453
-331209
-355832
-350185
-257749
-64362.1
-28881.2
-65884.4
-69659.5
-35054.6
-4185.65
33052.5
63423.4
84720.8
105374
115139
113392
117957
123512
125499
125934
121417
113093
107234
103444
99004.1
91315.3
81774.9
75018.5
71144.1
66753.8
60393.1
54936.1
49929.8
44793.9
41519.3
39397
35897.4
32538.8
29032
18487.7
12078.4
18897.1
29327.2
31564.3
27403.3
21460.3
18962.9
17127.4
12816.9
5358.89
840.12
472.689
2325.69
5301.82
7924.32
8936.23
9271.42
7768.38
5116.72
4052.87
5403.38
7601.85
10764.1
10341.2
4467.9
-1.9414e+06
-1.95237e+06
-1.94873e+06
-1.93966e+06
-1.93492e+06
-1.93437e+06
-1.93325e+06
-1.92989e+06
-1.92862e+06
-1.9332e+06
-1.95998e+06
-1.97514e+06
-1.83346e+06
-1.7939e+06
-1.82273e+06
-1.66231e+06
-1.5444e+06
-1.5319e+06
-1.41956e+06
-1.28728e+06
-1.1821e+06
-1.11837e+06
-1.06349e+06
-1.02364e+06
-996699
-922590
-830266
-842605
-848318
-696401
-561991
-527151
-488942
-403688
-342667
-330606
-357997
-349649
-253471
-71927.8
-41781.1
-70576.7
-77865.1
-44596
-6098.27
34133
58064.4
78733.3
102947
116347
114439
118602
124663
126121
126252
122384
113447
107335
103708
99639.4
91949.2
81784.8
74713.8
71101
67203.4
60870.3
55243.4
50178.1
44593.1
41332.2
39695.8
36724
33675.2
29905.5
19382.7
12413.4
18464.9
29068.7
32176
27491
20974.9
18513.3
17298
13685
5829.83
826.89
445.491
2381.52
5238.53
7804.33
8901.27
9278.24
7904.61
5107.3
4421.96
5863.32
8132.48
11206.4
10966.1
4481.84
-1.94145e+06
-1.95205e+06
-1.94822e+06
-1.93969e+06
-1.93552e+06
-1.93519e+06
-1.93415e+06
-1.93134e+06
-1.9321e+06
-1.9367e+06
-1.95737e+06
-1.96194e+06
-1.8264e+06
-1.7897e+06
-1.82001e+06
-1.65274e+06
-1.54631e+06
-1.52984e+06
-1.41105e+06
-1.28327e+06
-1.18745e+06
-1.12718e+06
-1.06529e+06
-1.02293e+06
-993910
-919428
-835200
-836431
-832887
-680957
-550960
-518706
-487039
-406349
-347170
-331689
-359900
-350933
-250451
-82080.7
-55145.9
-78650.8
-85922.2
-55216.3
-8805.96
37031.1
53850.6
71535.2
99924.8
115366
114212
118440
124602
126337
126173
123443
113756
107630
104059
100045
92662.8
81972.8
74323.9
71011.5
67792.3
61496
55654.9
50405.5
44345.4
40909
39975.7
37966
34824.7
30712.2
20647.7
13699.3
18395.1
28641.5
32517.1
27456.6
20362.8
17932
17399.3
14528.5
6364.49
929.035
589.159
2437.38
5142.18
7695.1
8783.56
9201.03
8074.29
5362.53
4908.14
6363.03
8594.13
11620.9
11654.8
4557.09
-1.94155e+06
-1.95167e+06
-1.94784e+06
-1.93976e+06
-1.93604e+06
-1.93589e+06
-1.93489e+06
-1.93273e+06
-1.93504e+06
-1.94046e+06
-1.95692e+06
-1.95049e+06
-1.81724e+06
-1.78931e+06