/*--------------------------------*- C++ -*----------------------------------*\
| =========                 |                                                 |
| \\      /  F ield         | foam-extend: Open Source CFD                    |
|  \\    /   O peration     | Version:     5.0                                |
|   \\  /    A nd           | Web:         http://www.foam-extend.org         |
|    \\/     M anipulation  |                                                 |
\*---------------------------------------------------------------------------*/
FoamFile
{
    version     2.0;
    format      ascii;
    class       volScalarField;
    location    "0.085";
    object      pd;
}
// * * * * * * * * * * * * * * * * * * * * * * * * * * * * * * * * * * * * * //

dimensions      [1 -1 -2 0 0 0 0];

internalField   nonuniform List<scalar> 
4000
(
-1.9712e+06
-1.97014e+06
-1.96497e+06
-1.95628e+06
-1.94453e+06
-1.93047e+06
-1.91784e+06
-1.91162e+06
-1.91155e+06
-1.91048e+06
-1.90618e+06
-1.89999e+06
-1.88316e+06
-1.86202e+06
-1.8121e+06
-1.72062e+06
-1.59131e+06
-1.45131e+06
-1.34299e+06
-1.26532e+06
-1.19414e+06
-1.1356e+06
-1.1026e+06
-1.0795e+06
-1.02943e+06
-947712
-910031
-905151
-870347
-706808
-449778
-280962
-311178
-368426
-352182
-312610
-257553
-212218
-138415
-34083.4
24911.2
21006.8
18714.6
45979.7
65551.3
71366.3
76037.3
86402
96907.8
103698
104812
106530
107897
107213
106472
103598
101270
97793.9
93152.5
88405.1
83464.7
78171.3
71798.3
65445
58665.7
53897.9
49566
45005.2
41702.6
38405.7
35427.2
33211.7
31804.1
30584.9
28729.3
26462.3
24005.1
21557.7
19293.1
17698.3
17483.1
18736.8
20256.4
20209.5
18734
16149
14168.3
12860.4
11815.1
10506.7
8739.29
6327.63
4316.64
4034.95
4335.35
4799.26
5182.68
4519.8
2597.74
1055.73
-1.97062e+06
-1.96953e+06
-1.96438e+06
-1.95575e+06
-1.94394e+06
-1.93018e+06
-1.91783e+06
-1.91201e+06
-1.91246e+06
-1.91082e+06
-1.90485e+06
-1.89555e+06
-1.88086e+06
-1.85814e+06
-1.81204e+06
-1.72413e+06
-1.59489e+06
-1.4527e+06
-1.34499e+06
-1.26882e+06
-1.19784e+06
-1.13828e+06
-1.10509e+06
-1.08472e+06
-1.0372e+06
-954795
-911672
-902299
-870655
-714665
-448408
-276635
-310500
-367515
-349002
-307661
-253060
-210926
-136105
-25576.9
29733.8
23216.4
19269.6
46525.8
66532.9
71533.7
76761.1
86474.8
96752.3
103234
104393
106225
107514
106785
105752
103186
101319
97505.4
92769.8
88101
83147.2
78034.5
71457.4
65256.2
58402.2
53736.7
49521.5
44887.5
41633
38356.6
35354.3
33145
31737.2
30495
28617.8
26373
23926.2
21514.1
19274.1
17682.9
17417.7
18569.3
20196.2
20110.2
18646.6
16223.6
14280.3
12958.1
11905.9
10671.1
8876.29
6411.92
4410.83
4159.56
4382.4
4805.83
5194.66
4548.8
2544.73
1000.17
-1.97032e+06
-1.96919e+06
-1.9641e+06
-1.95548e+06
-1.94365e+06
-1.93012e+06
-1.91781e+06
-1.91141e+06
-1.9118e+06
-1.90991e+06
-1.90206e+06
-1.89079e+06
-1.87733e+06
-1.86393e+06
-1.82351e+06
-1.73444e+06
-1.60037e+06
-1.4531e+06
-1.34279e+06
-1.26951e+06
-1.20541e+06
-1.14468e+06
-1.10893e+06
-1.08953e+06
-1.04295e+06
-952484
-896407
-897318
-885439
-739839
-467504
-276055
-313201
-366898
-351840
-305036
-249722
-214828
-137559
-19776.3
35994.4
22155.4
17250
47823.1
66521.5
71402.5
78134.2
87867.7
96797
102952
104548
106275
107314
106487
105504
102983
101432
97318.1
92521.6
87886.2
82879.8
77686
71293.7
65200.8
58178.8
53638.2
49453.7
44852.8
41543.9
38308.9
35316.5
32991.1
31655.7
30449.7
28542.3
26319
23858.8
21441.6
19208.1
17607.6
17403.4
18547.6
20074.2
20135.3
18629.8
16286.4
14345.7
12971.1
12028.4
10854.3
9011.42
6385.45
4386.94
4217.31
4428.08
4841.52
5254.63
4561.79
2518.06
957.639
-1.9703e+06
-1.96911e+06
-1.96416e+06
-1.95561e+06
-1.94388e+06
-1.93039e+06
-1.91758e+06
-1.90964e+06
-1.90884e+06
-1.90752e+06
-1.89695e+06
-1.88465e+06
-1.87214e+06
-1.87008e+06
-1.83535e+06
-1.74158e+06
-1.6046e+06
-1.45228e+06
-1.33951e+06
-1.2701e+06
-1.21244e+06
-1.14957e+06
-1.11183e+06
-1.09312e+06
-1.04276e+06
-943411
-875205
-885764
-909544
-769203
-491620
-294711
-319425
-365415
-354657
-302226
-244976
-217282
-139730
-18835.7
39935
18995.4
16194.7
49537.8
65833.9
70420.5
79303.9
90646.7
97024
102188
105070
106821
107523
106553
105690
103246
101458
97257.3
92391.9
87753.8
82726.1
77414.5
71179.8
65049.3
58253.7
53719.8
49455.6
44871.1
41535.5
38363.8
35171.5
32840.8
31608.5
30427
28498.7
26297.9
23816.9
21328.8
19091.9
17501.8
17390.1
18582.3
20142.6
20211.7
18680.5
16341
14344.3
12902.4
12093.5
11104.2
9077.25
6336.21
4322.91
4152.59
4474.78
4917.39
5332.88
4620.95
2425.24
795.239
-1.97059e+06
-1.96933e+06
-1.96448e+06
-1.956e+06
-1.94427e+06
-1.93072e+06
-1.91681e+06
-1.90651e+06
-1.90363e+06
-1.90273e+06
-1.89241e+06
-1.87754e+06
-1.86798e+06
-1.87521e+06
-1.84342e+06
-1.74569e+06
-1.60931e+06
-1.44916e+06
-1.32996e+06
-1.26227e+06
-1.21379e+06
-1.14958e+06
-1.11636e+06
-1.10227e+06
-1.03414e+06
-918337
-848149
-862386
-918700
-809096
-522082
-305154
-305078
-358855
-355188
-296801
-239591
-221114
-146081
-21905.7
38778.3
17947.1
17528.1
51470.1
65006.4
69084.9
80398.3
93571.7
96296.8
101235
105331
107667
107877
106977
106183
103684
101766
97402.7
92414.6
87751.5
82674.8
77265
71153.3
65007.8
58613.3
53782.1
49425.2
44998.4
41616.7
38288.6
34979.1
32746
31591.4
30377.7
28434.1
26245.1
23776
21253.9
18936.8
17411.8
17367.6
18698.8
20412
20445.8
18652.7
16343.7
14299.8
12790.4
12073.9
11234.1
9104.63
6193.74
4341.34
4099.57
4501.41
5054.55
5437.12
4743.74
2354.27
641.675
-1.97111e+06
-1.9696e+06
-1.96493e+06
-1.95646e+06
-1.94473e+06
-1.93096e+06
-1.91575e+06
-1.90268e+06
-1.89831e+06
-1.89828e+06
-1.88892e+06
-1.87239e+06
-1.86968e+06
-1.88184e+06
-1.84348e+06
-1.7413e+06
-1.61558e+06
-1.45539e+06
-1.31994e+06
-1.24729e+06
-1.20976e+06
-1.14603e+06
-1.1178e+06
-1.1155e+06
-1.02986e+06
-893584
-824961
-845471
-921168
-841980
-546280
-306078
-284577
-339181
-346410
-291519
-237529
-230681
-149776
-16918.1
36301.2
21223
21441.9
54137.8
65205.6
68219.6
81281.5
95315.3
95779.3
100947
105392
108337
107997
107493
106804
104161
102318
97784.4
92571.1
87881.4
82722.8
77207
71197.8
65097
58808
54063.8
49472.7
45157.4
41729.3
38093.3
34914.4
32793.6
31607.7
30341
28424.6
26245.8
23730.5
21125.6
18784.7
17282.9
17416.3
18942.4
20681.8
20725
18724.2
16234.2
14176.7
12623.1
11960.1
11280.4
9055.58
6099.79
4347.84
4049.89
4549.18
5208.76
5620.74
4904.85
2230.98
369.876
-1.97172e+06
-1.96991e+06
-1.96524e+06
-1.95689e+06
-1.94508e+06
-1.93094e+06
-1.91414e+06
-1.89897e+06
-1.89323e+06
-1.89421e+06
-1.88892e+06
-1.87071e+06
-1.87189e+06
-1.88598e+06
-1.84285e+06
-1.73663e+06
-1.62901e+06
-1.47416e+06
-1.31158e+06
-1.24095e+06
-1.20782e+06
-1.14437e+06
-1.11984e+06
-1.12021e+06
-1.03083e+06
-882666
-805966
-836299
-922176
-869478
-572982
-293320
-267082
-322779
-335458
-287695
-238775
-239305
-150602
-10689.8
34643.4
20172.4
26649.6
58156.2
67946.9
69483.4
82436.3
96021.4
96669.7
101479
105880
108526
107932
107871
107350
104825
102655
98270.7
92828.4
88102.3
82914.8
77262.7
71315.4
65273.2
58964
54151.2
49673.6
45364
41766.1
38027.7
34966
32893.6
31647.8
30337.3
28397.9
26246.5
23697.6
21007.4
18617.3
17162.2
17505.2
19231.7
20987.5
20999.1
18731.1
16021.6
14010
12437.8
11777.4
11264
9066.68
6154.85
4480.11
3909.64
4614.64
5359.81
5810.61
5085.66
2034
133.815
-1.97227e+06
-1.97016e+06
-1.96532e+06
-1.95677e+06
-1.94509e+06
-1.93035e+06
-1.91204e+06
-1.8954e+06
-1.88929e+06
-1.89049e+06
-1.89087e+06
-1.87146e+06
-1.87258e+06
-1.88506e+06
-1.84115e+06
-1.73302e+06
-1.64434e+06
-1.50824e+06
-1.31797e+06
-1.2464e+06
-1.2135e+06
-1.14233e+06
-1.12173e+06
-1.11891e+06
-1.02284e+06
-883197
-816611
-838185
-909761
-881829
-588157
-274764
-267707
-332979
-330660
-284955
-238743
-249196
-156834
-13291.4
29335.8
17459.1
31621.2
60366.2
72604.4
73478.9
83409.4
96775.1
98828.2
103010
107235
108223
107424
108327
107996
105402
103034
98753.2
93447.4
88177.6
83041.3
77388.7
71486.3
65534.9
59133.5
54395.5
49710.3
45381.3
41861.9
38069.7
35175.4
33015.1
31633.3
30361.2
28424.4
26262.5
23674.9
20911.4
18487.5
17050.7
17527.3
19482.5
21256.6
21114.9
18614.9
15783.2
13774.7
12234.2
11425.9
11189.9
9215.45
6338.58
4702.78
3918.13
4638.88
5566.77
5995.12
5243.11
1873.84
-178.099
-1.97241e+06
-1.97026e+06
-1.96496e+06
-1.95615e+06
-1.94468e+06
-1.92968e+06
-1.91057e+06
-1.89187e+06
-1.88531e+06
-1.88684e+06
-1.89281e+06
-1.87228e+06
-1.87323e+06
-1.88143e+06
-1.83874e+06
-1.72532e+06
-1.63355e+06
-1.53083e+06
-1.33535e+06
-1.24671e+06
-1.21593e+06
-1.1384e+06
-1.1231e+06
-1.11937e+06
-1.01517e+06
-885267
-832055
-838583
-885410
-879546
-601601
-272026
-290069
-360370
-326932
-281803
-239630
-254638
-175198
-20426.7
23208.8
14242
30842.6
59822.2
74418.1
77101.8
84613.4
96364
101434
105085
108271
108182
107287
108657
108587
105863
103456
99310.3
93838.8
88447.9
83280.8
77528.9
71681.4
65874.8
59523.8
54525.3
49666.6
45421
41927
38227.1
35405.2
33117.8
31596.9
30331.5
28486
26288.3
23662
20850.7
18356.8
16987
17584.5
19735.8
21474.5
21042.8
18369.2
15504.8
13408.2
11786.7
11035
10997.2
9253.44
6585.13
4983.08
3909.23
4757.79
5720.38
6106.44
5368.48
1746.08
-391.027
-1.97189e+06
-1.96991e+06
-1.9643e+06
-1.95496e+06
-1.94371e+06
-1.92856e+06
-1.90833e+06
-1.88939e+06
-1.88304e+06
-1.88456e+06
-1.89435e+06
-1.87242e+06
-1.87193e+06
-1.87682e+06
-1.8401e+06
-1.71793e+06
-1.60329e+06
-1.53812e+06
-1.34677e+06
-1.24592e+06
-1.21407e+06
-1.12592e+06
-1.12492e+06
-1.12491e+06
-1.01204e+06
-881602
-831305
-831792
-871481
-882997
-628660
-303861
-322579
-386699
-323672
-278227
-240335
-254652
-196072
-28186.3
14124.6
9766
27558.1
57298.8
71766.3
78356.2
85106.1
95161.5
103417
105243
108316
108654
107460
108932
109112
106226
103872
99932.8
94284.2
88855.6
83596.7
77650
71916.6
66304.8
59967.2
54688.4
49701.5
45507.1
42017.8
38394
35637.2
33214.2
31536.1
30304.5
28582.9
26338.4
23662.9
20819
18287.5
16943.2
17708.5
19906
21507.6
20910.9
17982.1
15124.7
12981.5
11354.2
10869
10886.4
9314.52
6669.32
5205.34
4050.53
4868.75
5853.48
6226.59
5495.07
1731.01
-652.606
-1.97076e+06
-1.96905e+06
-1.96332e+06
-1.95335e+06
-1.9419e+06
-1.92691e+06
-1.9066e+06
-1.88807e+06
-1.88174e+06
-1.88291e+06
-1.89644e+06
-1.87338e+06
-1.87051e+06
-1.87249e+06
-1.83864e+06
-1.70567e+06
-1.5732e+06
-1.54409e+06
-1.35556e+06
-1.23935e+06
-1.20695e+06
-1.11805e+06
-1.12955e+06
-1.12812e+06
-1.01575e+06
-887616
-830725
-821135
-866734
-897530
-657009
-362697
-381847
-410145
-321745
-277330
-243727
-248602
-199125
-31597.8
4024.23
5057.28
22859.9
54495.3
68520.2
78493.6
87162
94192.3
102460
104147
108452
109240
107582
109174
109557
106475
104258
100536
94819.2
89398.2
83990.8
77735.5
72121.5
66833
60428.3
54920.1
49808.5
45752.2
42095.8
38390.3
35865.2
33362.5
31509.8
30228.8
28707.2
26394.3
23684.4
20862.5
18266
16958.2
17808.6
20003.6
21450.3
20585.5
17407.9
14732.4
12546.9
11123.4
10816
10744.4
9281.69
6708.75
5412.17
4202.28
5092.65
5948.8
6253.44
5665.92
1770.37
-816.616
-1.96899e+06
-1.96772e+06
-1.96182e+06
-1.95155e+06
-1.94e+06
-1.92485e+06
-1.90554e+06
-1.88757e+06
-1.88118e+06
-1.88153e+06
-1.89879e+06
-1.87656e+06
-1.86902e+06
-1.87361e+06
-1.83323e+06
-1.69652e+06
-1.5619e+06
-1.55063e+06
-1.35829e+06
-1.23613e+06
-1.20521e+06
-1.11965e+06
-1.12797e+06
-1.12759e+06
-1.03573e+06
-908621
-831151
-814756
-866202
-905110
-678911
-406769
-436500
-424839
-319229
-278658
-250362
-239762
-180115
-26653.6
-4976.59
-730.148
17833.9
51168.1
65819.1
77787.3
89771.4
95188.9
100607
103666
108435
108778
107645
109319
109529
106768
104647
101152
95336.3
90014
84530
77835.7
72273.4
67352.8
60939.4
55047.4
50080
46022.2
42052.8
38481.2
36115.2
33490.7
31496.3
30270.4
28775.6
26484.3
23727.9
20962.5
18375.5
17018.7
17852.6
19991.5
21307.6
20041.5
16715.7
14175.8
12080.4
10915.3
10584
10553.7
9198.92
6679.01
5583.79
4399.72
5242.97
6012.02
6294.42
5869.93
1893.17
-928.615
-1.96667e+06
-1.96614e+06
-1.95991e+06
-1.9495e+06
-1.93793e+06
-1.9232e+06
-1.90525e+06
-1.88779e+06
-1.88152e+06
-1.88071e+06
-1.90008e+06
-1.88393e+06
-1.86599e+06
-1.8773e+06
-1.82503e+06
-1.69002e+06
-1.56091e+06
-1.5499e+06
-1.36456e+06
-1.23446e+06
-1.20443e+06
-1.1156e+06
-1.11294e+06
-1.11554e+06
-1.05101e+06
-935962
-828756
-809380
-867584
-903408
-691365
-433722
-462034
-421365
-314220
-287209
-267817
-232190
-150562
-22192.1
-15523.1
-9190.14
12551.4
46779.2
62807.4
75627.5
91820.7
97259.7
99743.3
104025
108432
108751
107535
109112
109807
107097
105101
101836
95869.5
90664
84842.4
78177
72478.2
67635.1
61439
55386.3
50432.7
46154.2
42138
38787.4
36296.3
33516.8
31622.4
30289
28895.1
26606.8
23790.3
21152.1
18504
17044.4
17860.7
19875.5
20977.8
19291.1
15956.3
13370.1
11266.5
10501.7
10233.9
10279.3
9057.77
6575.05
5660.03
4560.11
5443.4
6025.53
6320.82
6072.55
2105.7
-951.69
-1.96408e+06
-1.96431e+06
-1.9578e+06
-1.94719e+06
-1.93595e+06
-1.92208e+06
-1.90554e+06
-1.88892e+06
-1.88294e+06
-1.88198e+06
-1.89948e+06
-1.89118e+06
-1.86155e+06
-1.8743e+06
-1.81059e+06
-1.68358e+06
-1.56652e+06
-1.54273e+06
-1.36999e+06
-1.23228e+06
-1.19913e+06
-1.10702e+06
-1.10154e+06
-1.11441e+06
-1.05105e+06
-953828
-827684
-796462
-867200
-899654
-691425
-450171
-473035
-415975
-311750
-302432
-288178
-226239
-130144
-22952.1
-21373.4
-20482.5
5866.27
42040.6
59240.4
73758.4
93195
98581.6
99427.1
104438
108538
108884
108058
109257
110102
107289
105630
102487
96667.8
91151.5
85112.1
78544.4
72682.5
67907.7
61896.2
55786.9
50624.4
46371.2
42439.4
39018.3
36428.2
33636.6
31693
30358.6
29019.8
26772
23853.8
21434.7
18696.4
17009
17719.4
19661.2
20572.8
18312
15095.9
12492.3
10340.8
10028.3
9827.68
10005.9
8921.35
6452.8
5605.43
4703.02
5612.26
6049.53
6291.43
6278.27
2399.48
-848.699
-1.96136e+06
-1.96245e+06
-1.95557e+06
-1.94494e+06
-1.93423e+06
-1.9214e+06
-1.90625e+06
-1.89091e+06
-1.88479e+06
-1.88479e+06
-1.89915e+06
-1.89361e+06
-1.8567e+06
-1.86507e+06
-1.79345e+06
-1.66821e+06
-1.57971e+06
-1.54468e+06
-1.36892e+06
-1.22775e+06
-1.18684e+06
-1.10196e+06
-1.10125e+06
-1.11371e+06
-1.04267e+06
-962097
-830294
-783294
-864516
-900383
-689163
-462791
-480684
-411797
-309980
-315133
-300536
-225893
-130352
-21981.6
-22937.7
-37813.7
-3969.06
35208.1
55394.7
73005.5
94130.3
99321.4
99313.4
104886
108482
109425
108521
108900
110661
107537
106233
103309
97291.3
91605.6
85472.6
78611.6
73014.9
68454.3
62195.9
55983.1
50894
46657.6
42784.1
39360.8
36480.1
33737.6
31761.3
30412.4
29125.2
26943.4
23958.4
21769.6
18942.3
16971.9
17495.9
19422.6
20019.8
17516.6
14224.4
11616
9670.95
9700.96
9467.88
9688.88
8765.99
6398.7
5475.35
4848.47
5758.7
6074.68
6221.61
6521.71
2813.75
-632.477
-1.95865e+06
-1.96058e+06
-1.95339e+06
-1.94281e+06
-1.93258e+06
-1.921e+06
-1.90729e+06
-1.89328e+06
-1.88698e+06
-1.88793e+06
-1.89911e+06
-1.89341e+06
-1.85653e+06
-1.85419e+06
-1.78068e+06
-1.66496e+06
-1.5943e+06
-1.54433e+06
-1.36779e+06
-1.22353e+06
-1.172e+06
-1.09514e+06
-1.10716e+06
-1.10964e+06
-1.03634e+06
-965618
-829112
-775328
-861168
-894560
-681025
-472077
-486850
-408685
-312565
-327336
-308666
-226928
-135989
-28357.6
-21430.6
-48883.4
-16771.3
24698.3
50541
73842.4
95209.1
100089
99431.4
104851
108119
109711
109072
109155
111149
108337
106852
103678
98168.3
92175.7
85663.3
78754.2
73395.8
68878.5
62720.5
56331.5
51076
46938.6
43099.4
39595.8
36631
33822.8
31826.4
30486.2
29190.9
27037.3
24151.1
22225.4
19224.2
16945.8
17325.8
19192.7
19632.2
16628.3
13381.5
10748.2
9116.33
9306.5
9149.69
9426.22
8536.68
6349.95
5327.83
4950.65
5908.28
6069.55
6207.61
6734.92
3305.12
-272.703
-1.95599e+06
-1.9588e+06
-1.9513e+06
-1.94093e+06
-1.93139e+06
-1.92098e+06
-1.90868e+06
-1.89563e+06
-1.88973e+06
-1.89118e+06
-1.8996e+06
-1.89442e+06
-1.86164e+06
-1.84363e+06
-1.77132e+06
-1.67323e+06
-1.60061e+06
-1.53756e+06
-1.37776e+06
-1.22489e+06
-1.15668e+06
-1.09433e+06
-1.109e+06
-1.09702e+06
-1.03452e+06
-967307
-825192
-768174
-856697
-885566
-669582
-473209
-488490
-414323
-318163
-333157
-309065
-228057
-145173
-40520
-14881.8
-50126.6
-27938.7
17276.2
46358.7
74200.9
96220.1
101390
99750.9
104638
107790
110097
109461
109800
112164
109456
107162
103870
99064
92789.1
85877.5
79003.4
73722.8
69180.8
63278.4
56615.2
51380.5
47200.3
43390.3
39820.6
36699.7
33945.1
31834.6
30570.3
29244.7
27017.2
24400.8
22805.5
19569.1
16834.6
17164.4
19106.8
19363.3
15722.3
12544.9
9925.33
8481.39
8778.71
8821.97
9292.82
8329.19
6336.51
5254.68
5060.12
5994.33
6046.84
6160.13
7049.94
3825.53
169.128
-1.95351e+06
-1.95718e+06
-1.94955e+06
-1.9395e+06
-1.93035e+06
-1.9207e+06
-1.91002e+06
-1.89847e+06
-1.89287e+06
-1.89469e+06
-1.90186e+06
-1.89689e+06
-1.86884e+06
-1.83282e+06
-1.76791e+06
-1.68822e+06
-1.59182e+06
-1.53022e+06
-1.39652e+06
-1.24241e+06
-1.14727e+06
-1.09724e+06
-1.10414e+06
-1.0852e+06
-1.03654e+06
-963699
-812814
-761641
-852302
-880950
-660303
-473719
-487130
-421483
-324497
-332399
-302959
-230293
-156182
-46165.1
-5363.12
-45322.3
-34466
15752.4
44771.6
73546
97099.7
103008
100351
104028
107411
110640
110005
110398
113031
110372
107545
104146
99799.6
93461.7
86191.3
79328.9
73964.9
69466
63679.7
56956.6
51698.6
47493.3
43714.7
40065.1
36788.4
34039.2
31893.7
30601.6
29160.2
26793.6
24692
23317
20100.4
16904.5
17006.1
19386
19078.8
14818
11575.4
8996.01
7633.55
8146.96
8478.84
9182.74
8170.5
6343.21
5267.32
5256.73
5991.13
5929.29
6103.86
7397.49
4384.97
705.555
-1.9513e+06
-1.95571e+06
-1.94819e+06
-1.93839e+06
-1.92944e+06
-1.92067e+06
-1.91192e+06
-1.90184e+06
-1.89582e+06
-1.89765e+06
-1.90634e+06
-1.90029e+06
-1.87581e+06
-1.8206e+06
-1.75763e+06
-1.70828e+06
-1.58819e+06
-1.52649e+06
-1.41746e+06
-1.26552e+06
-1.15211e+06
-1.10454e+06
-1.10022e+06
-1.08289e+06
-1.04188e+06
-960483
-799304
-759726
-849838
-870990
-652696
-479141
-485964
-426576
-329545
-326900
-296846
-238236
-167845
-45977
984.767
-37757.7
-37860.1
11628.7
43819.1
71845.1
97977.1
103886
101753
104146
107015
111098
110681
110608
114099
111425
107755
104494
100550
94151.3
86523.5
79668
74173.3
69570.3
64154.6
57374.3
51997.4
47764.7
44033.2
40305.9
36890.2
34136.2
31948.1
30647.8
28879.5
26100.3
24869.7
24026.2
20744.9
17214.6
17456.5
20061.8
18819.6
13982.5
10606.2
7916.03
6778.08
7500.63
8135.08
9107.57
8054.07
6447.83
5419.67
5413.82
6032.26
5688.2
6032.72
7747.87
4905.19
1242.98
-1.94927e+06
-1.95439e+06
-1.9471e+06
-1.93774e+06
-1.92945e+06
-1.92129e+06
-1.91401e+06
-1.9054e+06
-1.89946e+06
-1.90053e+06
-1.9113e+06
-1.90491e+06
-1.88044e+06
-1.80963e+06
-1.75167e+06
-1.72698e+06
-1.59954e+06
-1.52655e+06
-1.43544e+06
-1.27038e+06
-1.15833e+06
-1.11057e+06
-1.09588e+06
-1.08092e+06
-1.04008e+06
-955425
-797790
-762220
-852734
-858490
-643987
-487560
-484369
-430018
-335962
-326243
-294312
-248382
-180787
-44492.8
3581.67
-30565
-37732.8
6827.6
40773.1
69243
99074.3
104159
102823
104716
107571
111679
111208
111023
115414
112536
108182
104801
100988
94764.3
87047.6
80044.7
74359.6
69762.5
64460.4
57756.4
52297.5
47980.2
44305.8
40546.5
37001.4
34219.3
31937.1
30553
28262.6
25160.7
24954.2
24781.2
21482.3
17835.4
18560
21054.3
18667.1
13271.7
9683.23
6985.11
6126.38
6850.08
7794.87
9076.27
7982.08
6602.2
5686.82
5523.13
6015.26
5426.13
5931.79
7961.64
5410.73
1837.72
-1.94746e+06
-1.95352e+06
-1.94674e+06
-1.93771e+06
-1.9296e+06
-1.92244e+06
-1.91648e+06
-1.90886e+06
-1.9028e+06
-1.90361e+06
-1.91614e+06
-1.91171e+06
-1.88246e+06
-1.80149e+06
-1.76405e+06
-1.73866e+06
-1.6094e+06
-1.53077e+06
-1.44629e+06
-1.26257e+06
-1.16474e+06
-1.11576e+06
-1.09293e+06
-1.07433e+06
-1.03056e+06
-942363
-806388
-779562
-853937
-842001
-636675
-495254
-483921
-432142
-342978
-329845
-301113
-262748
-192466
-44407.1
-1228.79
-25640.4
-34630.4
4210.63
34414.8
67128.5
100435
104261
103702
105665
108396
112043
111749
111851
116782
113526
108490
105041
101421
95339.4
87595.6
80475.1
74535.8
69985.7
64707.5
58097.6
52602.4
48201.6
44572.4
40762.3
37111.4
34306.7
31856.5
30295.8
27199.3
24157.6
25022.1
25735
22276.5
18858.1
20237.7
21857.4
18559.5
12794.5
8820.82
6189.86
5569.19
6241.12
7469.22
9038.7
7954.03
6841.93
6032.47
5611.42
5962.51
5121.83
5824.14
8161.74
5963.44
2425.15
-1.94582e+06
-1.95299e+06
-1.94705e+06
-1.93787e+06
-1.92983e+06
-1.92376e+06
-1.91894e+06
-1.91204e+06
-1.90581e+06
-1.90649e+06
-1.92081e+06
-1.92267e+06
-1.88183e+06
-1.79744e+06
-1.7821e+06
-1.74067e+06
-1.61143e+06
-1.53876e+06
-1.45224e+06
-1.26191e+06
-1.17439e+06
-1.12074e+06
-1.08888e+06
-1.06218e+06
-1.01872e+06
-931881
-812374
-795637
-852173
-824388
-634823
-502172
-484992
-433956
-350172
-335945
-311082
-278192
-203555
-40551.8
-6366.84
-27624.9
-32697.9
820.561
25702.3
64253.3
102052
103671
104304
106786
109323
112337
112242
112959
118169
114451
108870
105247
101644
95819.5
88095
80755.7
74815.2
70319.7
64850.3
58395
52887.3
48419
44820.2
40947.9
37245.5
34399.7
31738.7
29715.6
26069.9
22660.9
24574
26683.5
23217.1
20342.2
22055.7
22414.7
18421.8
12429.8
8068.24
5292.32
4874.91
5650.15
7143.4
8940.39
8017.98
7061.74
6401.41
5649.51
5829.28
4880.56
5771.06
8327.34
6558.84
3003.93
-1.94449e+06
-1.95283e+06
-1.94767e+06
-1.93811e+06
-1.93024e+06
-1.92511e+06
-1.92129e+06
-1.91495e+06
-1.90856e+06
-1.90908e+06
-1.92578e+06
-1.93815e+06
-1.87861e+06
-1.79393e+06
-1.80044e+06
-1.73547e+06
-1.60183e+06
-1.54758e+06
-1.45566e+06
-1.27138e+06
-1.18187e+06
-1.12427e+06
-1.08348e+06
-1.05014e+06
-1.00594e+06
-921132
-817106
-808117
-848900
-808233
-636936
-508038
-486971
-435632
-356301
-342083
-318563
-293136
-215177
-40374.4
-7864.38
-33762.6
-31953.3
-3934.49
17678.5
59028
101217
102838
105034
107739
109900
112392
112783
114352
119556
115313
109143
105510
101832
96219.9
88536.7
80981.1
75092.2
70535.6
65044.1
58767.1
53222.8
48523.5
44885.9
41156.2
37538.7
34388.6
31529
29062.3
24644.3
20525
23680.6
27469.9
24291.9
22007.4
23523.9
22881.4
18308.8
12145
7372.11
4347.6
4083.51
5077.75
6794.2
8815.25
8124.26
7371.01
6713.03
5637.61
5602.52
4575.6
5752.16
8550.33
7039.59
3428.91
-1.94348e+06
-1.95299e+06
-1.94853e+06
-1.93837e+06
-1.93066e+06
-1.92647e+06
-1.92355e+06
-1.91763e+06
-1.91108e+06
-1.91149e+06
-1.93176e+06
-1.95724e+06
-1.8748e+06
-1.78892e+06
-1.81539e+06
-1.73658e+06
-1.58919e+06
-1.55271e+06
-1.45651e+06
-1.28169e+06
-1.18474e+06
-1.1262e+06
-1.07882e+06
-1.04021e+06
-996033
-915767
-820794
-820513
-848496
-789159
-637565
-512774
-487174
-435581
-359533
-347688
-323317
-305354
-227815
-44798.2
-9810.21
-42594.2
-34658.9
-8372.3
11539.8
53077.3
96657.4
102486
105499
108677
109958
112276
113466
116073
120901
115937
109543
105834
102010
96617.8
88955.1
81203.4
75263
70752.2
65350.4
59065.4
53470.4
48677
44910.6
41341.7
37824.2
34394.5
31344.9
28385.1
22949.9
18629.4
22807.7
28067.3
25460.5
23467
24462.5
23206.9
18189
11981.4
6733.14
3527.7
3339.56
4538.46
6481.86
8709.19
8305.68
7689.41
7019.58
5588.6
5249.34
4376.62
5780.48
8792.5
7458.19
3797.19
-1.94266e+06
-1.95301e+06
-1.94938e+06
-1.93876e+06
-1.93118e+06
-1.92791e+06
-1.92545e+06
-1.91995e+06
-1.91325e+06
-1.9137e+06
-1.93901e+06
-1.97584e+06
-1.87088e+06
-1.79262e+06
-1.82712e+06
-1.73715e+06
-1.57917e+06
-1.55314e+06
-1.45475e+06
-1.2895e+06
-1.18598e+06
-1.12521e+06
-1.07392e+06
-1.03163e+06
-989928
-912906
-825763
-831433
-850584
-771435
-635451
-516224
-484631
-431808
-358597
-352483
-330904
-315417
-241039
-50165.9
-12295.3
-51709.4
-39598.3
-9158.02
5723.68
46821.7
89465.8
101247
105994
109647
109532
112410
114862
117974
122049
116711
110087
106145
102209
97015.6
89402.8
81421.1
75380.3
70970.9
65657.5
59223.5
53683.3
48903.8
44940.1
41470.9
38075.8
34435.2
31085.2
28102.6
21169.8
16882.5
21828.8
28608.9
26692.5
24641.7
24748.5
23311.4
17980.5
11899.4
6112.02
2788.66
2658.18
4014.17
6214.26
8618.94
8466.56
8060.06
7268.8
5497.64
4905.75
4326.58
5821.35
9040.96
7890.08
4068.79
-1.94203e+06
-1.95318e+06
-1.94991e+06
-1.93903e+06
-1.93173e+06
-1.92937e+06
-1.92709e+06
-1.92166e+06
-1.91543e+06
-1.91608e+06
-1.94734e+06
-1.99026e+06
-1.86687e+06
-1.80089e+06
-1.83521e+06
-1.73317e+06
-1.57049e+06
-1.55009e+06
-1.45251e+06
-1.29373e+06
-1.18525e+06
-1.12367e+06
-1.06885e+06
-1.02381e+06
-988460
-911277
-828366
-843825
-854476
-753487
-630509
-520198
-482504
-427701
-353995
-352191
-340672
-327818
-252523
-57633.9
-15280.9
-58538
-43919
-10696.3
2220.13
42554.6
82463.7
98986.2
106911
109715
109540
113105
116970
120102
123282
117634
110723
106491
102424
97395.5
89810.2
81599.7
75432.1
71152.2
65848.4
59362.7
53956.3
49123.4
44930.5
41574.3
38341
34498.4
30817
27880
19716.8
15365.3
21049.5
29054.5
27723.3
25631.2
24465.5
22747.4
17789.1
11871.5
5498.31
2136.7
2015.17
3511.27
6006.96
8497.06
8603.61
8403.98
7434.93
5458.92
4545.58
4377.3
5923.25
9275.32
8317.57
4237.08
-1.94169e+06
-1.95325e+06
-1.9501e+06
-1.93931e+06
-1.93236e+06
-1.93064e+06
-1.9285e+06
-1.92303e+06
-1.91753e+06
-1.91898e+06
-1.95624e+06
-1.99884e+06
-1.86268e+06
-1.80531e+06
-1.83668e+06
-1.72305e+06
-1.56332e+06
-1.54518e+06
-1.44926e+06
-1.29545e+06
-1.18481e+06
-1.12162e+06
-1.06463e+06
-1.01826e+06
-988564
-911431
-828835
-855465
-860842
-735517
-620840
-527412
-482263
-422433
-347396
-346864
-349761
-340521
-263339
-60903.5
-16986.4
-63253.8
-48007
-15109.1
932.767
38542.8
77335.7
96036.1
107895
110225
109931
114069
119221
121950
124297
118636
111408
106784
102689
97754.8
90204.5
81700.4
75450.5
71225.5
66005
59568.4
54169.2
49330.3
44943
41606.5
38637.2
34646.7
30689
27860.3
18769.1
14413.7
20743.5
29225.4
28726.9
26380.7
23637.7
21888.9
17455.4
11743.9
5051.16
1598.02
1472.37
3084.12
5807.71
8350.66
8761.29
8697.61
7550.06
5434.33
4150.46
4554.03
6178.24
9554.25
8758.59
4322.16
-1.9415e+06
-1.95316e+06
-1.95002e+06
-1.93954e+06
-1.93293e+06
-1.93165e+06
-1.92979e+06
-1.92464e+06
-1.9197e+06
-1.92216e+06
-1.96349e+06
-2.00064e+06
-1.85715e+06
-1.80573e+06
-1.83298e+06
-1.70887e+06
-1.55758e+06
-1.54023e+06
-1.44404e+06
-1.29512e+06
-1.18445e+06
-1.11934e+06
-1.06112e+06
-1.0144e+06
-994052
-920983
-831742
-858723
-862317
-721423
-607009
-535335
-483863
-417031
-342290
-338284
-355467
-349783
-267921
-58668.2
-15790.4
-63618.9
-53193.3
-21607.6
-589.161
34633
73974.9
94135.3
108496
112052
110030
115331
120814
123363
124980
119508
112046
107037
102959
98123.7
90561.5
81703.8
75393.2
71218
66175.5
59797.5
54368.8
49528.2
44943.2
41631.3
38874.5
34879.3
30945.3
28085.5
18290.1
13503.5
20315.3
29250.8
29768.4
26975.9
22623.3
20707.8
17163.2
11730.1
4938.71
1160.99
996.976
2727.58
5598.77
8228.54
8848.72
8967.07
7674.02
5392.92
3911.67
4787.61
6596.33
9910.42
9233.31
4363.86
-1.94145e+06
-1.95293e+06
-1.94975e+06
-1.93965e+06
-1.93356e+06
-1.9326e+06
-1.93097e+06
-1.92657e+06
-1.92238e+06
-1.92531e+06
-1.96633e+06
-1.99656e+06
-1.84995e+06
-1.80422e+06
-1.82808e+06
-1.69298e+06
-1.55248e+06
-1.53645e+06
-1.43774e+06
-1.29404e+06
-1.1842e+06
-1.1169e+06
-1.06064e+06
-1.01785e+06
-997826
-929256
-831770
-856092
-861296
-720428
-592980
-539315
-485157
-410348
-341041
-333884
-355641
-350956
-265436
-60790.4
-18106.2
-63456
-59996.1
-27555
-3088.07
32659
68835.2
90356.3
107779
113740
111267
117121
121929
124546
125461
120441
112645
107172
103208
98509.8
90928.6
81674.1
75239.2
71176
66387.8
60055.9
54632
49728.5
44885.3
41601.6
39156.8
35280.3
31547.6
28380.4
18215.7
12624.5
19535.5
29340.7
30728.6
27237.7
21984.2
19557.9
17029
12099.2
5066.65
916.592
643.179
2467.58
5419.67
8084.63
8907.77
9152.21
7716.58
5275.71
3877.72
5055.78
7055.61
10320.7
9777.67
4410.11
-1.9414e+06
-1.95265e+06
-1.94925e+06
-1.9397e+06
-1.93424e+06
-1.93349e+06
-1.93216e+06
-1.92832e+06
-1.92548e+06
-1.92905e+06
-1.96445e+06
-1.988e+06
-1.84149e+06
-1.80043e+06
-1.82472e+06
-1.67632e+06
-1.54652e+06
-1.53437e+06
-1.43037e+06
-1.29143e+06
-1.18197e+06
-1.11601e+06
-1.06134e+06
-1.02004e+06
-998324
-929683
-829768
-850446
-860223
-716252
-572095
-534714
-488643
-405102
-341453
-331209
-355832
-350184
-257748
-64361.6
-28880.7
-65883.9
-69659
-35054.1
-4185.16
33053
63423.9
84721.3
105375
115139
113393
117958
123513
125499
125935
121418
113093
107235
103444
99004.6
91315.8
81775.4
75018.9
71144.6
66754.3
60393.6
54936.5
49930.3
44794.4
41519.8
39397.5
35897.9
32539.3
29032.5
18488.2
12078.9
18897.6
29327.7
31564.8
27403.8
21460.8
18963.4
17127.9
12817.4
5359.38
840.611
473.179
2326.18
5302.31
7924.81
8936.72
9271.91
7768.87
5117.21
4053.36
5403.87
7602.34
10764.6
10341.7
4468.39
-1.9414e+06
-1.95237e+06
-1.94873e+06
-1.93966e+06
-1.93492e+06
-1.93437e+06
-1.93325e+06
-1.92989e+06
-1.92862e+06
-1.9332e+06
-1.95998e+06
-1.97514e+06
-1.83346e+06
-1.7939e+06
-1.82273e+06
-1.66231e+06
-1.5444e+06
-1.5319e+06
-1.41956e+06
-1.28728e+06
-1.1821e+06
-1.11837e+06
-1.06349e+06
-1.02364e+06
-996698
-922590
-830265
-842605
-848318
-696401
-561990
-527151
-488941
-403687
-342666
-330606
-357997
-349648
-253471
-71927.3
-41780.6
-70576.2
-77864.7
-44595.5
-6097.78
34133.5
58064.9
78733.8
102947
116348
114439
118603
124664
126122
126252
122384
113447
107335
103709
99639.9
91949.7
81785.3
74714.3
71101.4
67203.9
60870.8
55243.9
50178.6
44593.6
41332.7
39696.2
36724.5
33675.7
29906
19383.2
12413.9
18465.4
29069.2
32176.5
27491.5
20975.4
18513.8
17298.5
13685.4
5830.32
827.381
445.982
2382.01
5239.02
7804.82
8901.76
9278.73
7905.1
5107.79
4422.45
5863.81
8132.97
11206.8
10966.5
4482.33
-1.94145e+06
-1.95205e+06
-1.94822e+06
-1.93969e+06
-1.93552e+06
-1.93518e+06
-1.93415e+06
-1.93134e+06
-1.9321e+06
-1.9367e+06
-1.95737e+06
-1.96194e+06
-1.8264e+06
-1.7897e+06
-1.82001e+06
-1.65274e+06
-1.54631e+06
-1.52984e+06
-1.41105e+06
-1.28327e+06
-1.18745e+06
-1.12718e+06
-1.06529e+06
-1.02293e+06
-993909
-919427
-835199
-836431
-832886
-680957
-550959
-518706
-487039
-406348
-347169
-331689
-359900
-350933
-250450
-82080.2
-55145.4
-78650.3
-85921.7
-55215.8
-8805.47
37031.6
53851.1
71535.7
99925.3
115367
114212
118441
124602
126337
126173
123443
113757
107630
104060
100045
92663.3
81973.3
74324.4
71012
67792.8
61496.5
55655.4
50406
44345.9
40909.5
39976.2
37966.5
34825.2
30712.7
20648.2
13699.8
18395.6
28642
32517.6
27457.1
20363.3
17932.5
17399.8
14529
6364.98
929.526
589.65
2437.87
5142.67
7695.59
8784.05
9201.52
8074.78
5363.02
4908.63
6363.52
8594.62
11621.4
11655.3
4557.59
-1.94155e+06
-1.95167e+06
-1.94784e+06
-1.93976e+06
-1.93604e+06
-1.93589e+06
-1.93489e+06
-1.93272e+06
-1.93504e+06
-1.94046e+06
-1.95692e+06
-1.95049e+06