/*--------------------------------*- C++ -*----------------------------------*\
| =========                 |                                                 |
| \\      /  F ield         | foam-extend: Open Source CFD                    |
|  \\    /   O peration     | Version:     5.0                                |
|   \\  /    A nd           | Web:         http://www.foam-extend.org         |
|    \\/     M anipulation  |                                                 |
\*---------------------------------------------------------------------------*/
FoamFile
{
    version     2.0;
    format      ascii;
    class       surfaceScalarField;
    location    "0.085";
    object      phi;
}
// * * * * * * * * * * * * * * * * * * * * * * * * * * * * * * * * * * * * * //

dimensions      [0 3 -1 0 0 0 0];

internalField   nonuniform List<scalar> 
7860
(
-0.21504
0.22004
-0.500208
0.285161
-0.803531
0.303318
-1.05728
0.253748
-1.24289
0.185612
-1.45957
0.216676
-1.61229
0.152726
-1.65174
0.0394507
-1.86793
0.216198
-2.16821
0.300283
-2.5283
0.36009
-2.82894
0.300646
-3.27382
0.444885
-4.37548
1.10167
-5.95456
1.57908
-7.56254
1.60798
-8.36573
0.803201
-8.27691
-0.0888178
-7.98496
-0.291951
-7.62116
-0.363806
-6.75495
-0.866204
-5.58588
-1.16907
-4.7987
-0.787189
-4.61678
-0.181922
-4.52544
-0.0913496
-3.92955
-0.595883
-3.2214
-0.70816
-3.18093
-0.040473
-4.65976
1.47883
-6.79536
2.1356
-7.13106
0.335699
-5.70606
-1.425
-4.51686
-1.1892
-3.81497
-0.701886
-3.28521
-0.529755
-3.1392
-0.146004
-3.04313
-0.096066
-3.22876
0.185637
-3.53566
0.306908
-3.47076
-0.0648922
-3.3437
-0.127055
-3.28232
-0.061375
-3.36757
0.0852624
-3.25631
-0.111255
-3.00967
-0.246636
-2.89386
-0.115802
-2.73493
-0.158919
-2.59995
-0.134976
-2.45941
-0.140538
-2.21544
-0.243964
-1.97731
-0.238128
-1.78435
-0.192959
-1.62
-0.16434
-1.44912
-0.170885
-1.29169
-0.157424
-1.12938
-0.162307
-0.90256
-0.22682
-0.717958
-0.1846
-0.583369
-0.134586
-0.4632
-0.120166
-0.365607
-0.0975899
-0.250267
-0.115337
-0.205783
-0.0444827
-0.143998
-0.0617844
-0.118712
-0.0252847
-0.105482
-0.0132305
-0.0794415
-0.0260414
-0.0721578
-0.00728494
-0.0464905
-0.0256688
-0.0248313
-0.0216612
-0.0164227
-0.00841066
-0.0180642
0.00163905
0.00262906
-0.0206961
0.0540203
-0.0513949
0.104506
-0.0504901
0.147808
-0.0433067
0.176022
-0.0282195
0.187054
-0.0110379
0.177729
0.00931909
0.157112
0.0206121
0.16364
-0.00653293
0.191411
-0.0277755
0.267582
-0.0761752
0.328118
-0.0605387
0.341562
-0.0134458
0.340544
0.00101622
0.305106
0.0354376
0.251624
0.0534828
0.225094
0.0265315
0.217892
0.00720299
0.202991
0.0149011
0.154644
0.0483468
0.0845438
0.0700987
0.0342611
0.0502799
0.0111167
0.0231404
0.0128733
-0.00176248
0.0357048
-0.0228384
0.0619531
-0.0262557
0.0741361
-0.0121896
-0.0235625
-0.44664
0.671674
-0.940008
0.778518
-1.39561
0.758918
-1.78373
0.641864
-2.14067
0.542553
-2.37553
0.451543
-2.40639
0.183597
-2.30351
-0.0634193
-2.31513
0.22782
-2.7403
0.72546
-3.45101
1.07081
-4.08466
0.934306
-5.26736
1.62759
-7.60973
3.44405
-9.84099
3.81036
-10.7619
2.52889
-10.7169
0.758245
-10.3041
-0.501613
-9.09696
-1.49912
-7.68792
-1.77285
-7.21084
-1.34329
-7.23796
-1.14196
-7.53658
-0.488584
-7.49192
-0.22659
-5.89824
-1.68504
-4.21953
-2.2746
-3.42944
-1.49825
-4.03928
0.569359
-7.17867
4.61822
-11.4164
6.37336
-11.7546
0.67391
-8.3828
-4.79684
-5.59114
-3.98085
-4.19963
-2.09338
-4.06016
-0.669219
-3.98599
-0.220156
-3.72896
-0.353084
-4.05492
0.51161
-4.68752
0.939524
-4.81654
0.0641358
-4.43424
-0.50934
-4.28163
-0.213969
-4.32105
0.124695
-4.43112
-0.00117171
-4.74735
0.0696079
-4.83778
-0.0253615
-4.63829
-0.358398
-4.39744
-0.37582
-4.28968
-0.248291
-4.10217
-0.431461
-3.78817
-0.552121
-3.49444
-0.486679
-3.22963
-0.429147
-2.9536
-0.446913
-2.60349
-0.507526
-2.28877
-0.477021
-2.01362
-0.501972
-1.75983
-0.438383
-1.52109
-0.373319
-1.30328
-0.337967
-1.10649
-0.294382
-0.993313
-0.228507
-0.810082
-0.227711
-0.63851
-0.233357
-0.51302
-0.150774
-0.393844
-0.132409
-0.324233
-0.0956536
-0.244592
-0.0869295
-0.190683
-0.0795816
-0.141671
-0.0706777
-0.0959859
-0.0541006
-0.0819603
-0.0123929
-0.0374622
-0.0652016
0.0663727
-0.155239
0.180315
-0.164443
0.284763
-0.147767
0.359344
-0.102812
0.390245
-0.0419518
0.379746
0.0198066
0.341473
0.0588733
0.380943
-0.0460119
0.496968
-0.143809
0.613096
-0.19231
0.71905
-0.166497
0.745473
-0.0398716
0.69763
0.0488583
0.597602
0.135468
0.48735
0.163736
0.427181
0.0867027
0.378184
0.0561999
0.344473
0.0486115
0.287901
0.104915
0.186735
0.171259
0.0902247
0.146781
0.0433288
0.0700248
0.0552718
-0.0137197
0.0990711
-0.0666525
0.114656
-0.0418535
0.12985
-0.0273929
-0.0705427
-0.437418
1.11409
-0.852262
1.19335
-1.23989
1.14654
-1.61221
1.01418
-1.94449
0.874842
-2.06351
0.570567
-1.96207
0.0821714
-1.90796
-0.117521
-2.02383
0.343702
-2.63338
1.33501
-3.38054
1.81798
-4.35507
1.90884
-5.6854
2.95794
-6.65808
4.41674
-7.09198
4.24426
-7.33699
2.77391
-7.6629
1.08416
-7.85102
-0.313494
-7.65416
-1.69598
-6.86797
-2.55905
-6.00188
-2.20939
-5.75932
-1.38452
-5.52107
-0.726845
-4.16914
-1.57853
-2.18842
-3.66576
-1.80886
-2.65417
-3.6574
0.35028
-7.68674
4.5987
-11.9063
8.83774
-11.8925
6.35957
-9.40034
-1.81822
-8.76973
-5.42745
-7.48552
-5.26505
-6.24768
-3.33121
-6.5096
-0.407284
-6.45568
-0.274056
-5.88289
-0.925864
-6.28415
0.912891
-7.02131
1.6767
-6.72288
-0.234279
-5.81276
-1.41944
-4.8755
-1.15122
-4.51652
-0.234274
-4.5979
0.0802218
-4.94463
0.416346
-5.20429
0.234313
-5.08015
-0.48253
-4.74288
-0.713079
-4.61426
-0.376899
-4.62852
-0.417201
-4.38286
-0.79777
-4.08029
-0.789241
-3.79464
-0.714788
-3.54175
-0.699804
-3.24526
-0.804006
-2.86967
-0.852612
-2.59433
-0.777311
-2.33834
-0.694369
-2.09769
-0.613961
-1.86862
-0.567026
-1.63686
-0.526141
-1.42353
-0.441833
-1.22993
-0.421315
-1.08822
-0.375068
-0.869876
-0.369115
-0.678824
-0.323461
-0.550093
-0.224387
-0.44633
-0.190695
-0.355084
-0.170832
-0.254852
-0.170915
-0.217584
-0.0913735
-0.178997
-0.0509861
-0.102259
-0.141947
0.0112845
-0.268792
0.143768
-0.296938
0.274561
-0.278571
0.380003
-0.208267
0.431326
-0.0932877
0.441024
0.010097
0.419318
0.0805678
0.449224
-0.0759266
0.537562
-0.232155
0.682961
-0.337714
0.773412
-0.256952
0.759619
-0.0260807
0.660093
0.148384
0.515111
0.280451
0.37015
0.308698
0.26143
0.195425
0.211896
0.105734
0.182314
0.0781929
0.208667
0.0785588
0.191625
0.188295
0.107841
0.230555
0.0640327
0.113821
0.0847892
-0.034491
0.121335
-0.103214
0.151228
-0.0717596
0.147062
-0.0232352
-0.0773295
-0.357917
1.477
-0.667333
1.50276
-0.917337
1.39653
-1.12194
1.21879
-1.18309
0.935989
-1.10167
0.489159
-0.963187
-0.0563062
-0.922865
-0.157837
-1.02382
0.444665
-1.4769
1.78809
-2.26069
2.60177
-2.92227
2.57044
-3.6881
3.72378
-4.66014
5.38878
-5.50965
5.09378
-6.12233
3.3866
-6.31504
1.27688
-6.46973
-0.158808
-6.18297
-1.98274
-4.72939
-4.01263
-3.5403
-3.39849
-2.93196
-1.99287
-2.46361
-1.19521
-1.60775
-2.4344
-0.612951
-4.66057
-0.895278
-2.37185
-3.69127
3.14627
-7.11181
8.01924
-8.01056
9.73649
-7.62136
5.97036
-7.60073
-1.83885
-7.0885
-5.93967
-5.70439
-6.64915
-6.11222
-2.92336
-6.5828
0.0633115
-6.51769
-0.339141
-7.33653
-0.106999
-8.41941
1.9958
-9.08957
2.34689
-8.08896
-1.23487
-6.3533
-3.15509
-4.84431
-2.66019
-4.41905
-0.659524
-4.58018
0.241366
-4.85585
0.692031
-4.99977
0.378237
-4.87347
-0.608818
-4.57836
-1.00818
-4.60941
-0.345845
-4.64112
-0.385489
-4.48197
-0.956911
-4.20656
-1.06464
-3.93285
-0.988493
-3.71449
-0.918167
-3.48563
-1.03286
-3.23144
-1.1068
-2.93589
-1.07287
-2.6671
-0.963147
-2.42554
-0.855514
-2.19604
-0.79653
-1.96185
-0.760323
-1.7182
-0.685477
-1.48203
-0.657483
-1.27264
-0.584462
-1.03922
-0.602529
-0.879985
-0.482702
-0.751599
-0.352774
-0.610418
-0.331879
-0.485435
-0.295818
-0.419812
-0.236541
-0.367256
-0.143934
-0.28107
-0.137178
-0.185063
-0.23796
-0.067192
-0.386672
0.0718043
-0.435944
0.208063
-0.41484
0.319821
-0.320036
0.402073
-0.17555
0.433729
-0.02157
0.436386
0.0779019
0.458887
-0.0984365
0.525377
-0.298652
0.6417
-0.454042
0.697702
-0.312957
0.595635
0.0759838
0.43074
0.313279
0.242626
0.468566
0.0769149
0.47441
-0.0325119
0.304853
-0.100109
0.173331
-0.0756878
0.0537707
0.0115385
-0.00867057
0.0846238
0.115205
0.0787205
0.23645
0.0538576
0.138674
0.0786989
-0.059346
0.126256
-0.150785
0.139953
-0.0854683
0.129574
-0.0128636
-0.107762
-0.217071
1.69906
-0.322456
1.60813
-0.38871
1.46278
-0.37948
1.20956
-0.289133
0.845646
-0.149677
0.349707
-0.060939
-0.14504
-0.0453414
-0.173432
-0.173536
0.572863
-0.665749
2.2803
-1.21568
3.15171
-1.81257
3.16732
-2.68647
4.59769
-3.51361
6.21592
-3.57648
5.15666
-2.61589
2.42602
-2.15699
0.817983
-2.91636
0.600558
-4.02861
-0.870491
-3.38187
-4.65938
-2.02216
-4.7582
-0.981319
-3.03372
-0.0169435
-2.15959
0.605728
-3.05707
1.16578
-5.22063
0.994381
-2.20045
-0.66289
4.80354
-2.45284
9.80919
-2.83824
10.1219
-3.6392
6.77133
-5.15813
-0.319924
-6.2003
-4.89749
-6.89832
-5.95112
-6.78357
-3.03809
-5.95274
-0.767493
-6.26659
-0.025269
-7.96492
1.59135
-8.79187
2.82277
-6.74343
0.298475
-5.1807
-2.79758
-4.95132
-3.38445
-4.0602
-3.55129
-3.93444
-0.785279
-4.22017
0.527109
-4.36196
0.833837
-4.35639
0.372676
-4.37008
-0.595116
-4.31229
-1.06596
-4.28705
-0.371076
-4.31067
-0.361859
-4.18659
-1.08099
-3.99095
-1.26027
-3.81228
-1.16715
-3.62652
-1.10392
-3.44995
-1.20942
-3.26103
-1.29572
-3.01991
-1.31398
-2.78501
-1.19804
-2.5678
-1.07272
-2.34857
-1.01576
-2.12802
-0.980868
-1.88777
-0.925723
-1.64965
-0.895607
-1.41772
-0.816388
-1.26954
-0.750711
-1.06123
-0.69101
-0.892926
-0.521084
-0.763914
-0.460893
-0.646998
-0.412737
-0.590432
-0.29311
-0.487512
-0.246859
-0.358076
-0.266618
-0.262912
-0.33313
-0.143534
-0.506058
-0.00878969
-0.570697
0.132982
-0.556622
0.254913
-0.441977
0.348033
-0.26868
0.40809
-0.0816365
0.418186
0.0677973
0.451531
-0.131789
0.502276
-0.349403
0.50284
-0.454611
0.447004
-0.257124
0.329362
0.193624
0.0880729
0.554568
-0.141859
0.698499
-0.283161
0.615713
-0.386903
0.408596
-0.429122
0.215551
-0.374831
-0.000520547
-0.194966
-0.188539
-0.0488475
-0.0309181
0.0041779
0.183417
0.0265734
0.116268
0.0539899
-0.086775
0.08606
-0.182868
0.0838742
-0.0832935
0.0487209
0.0222823
-0.094493
-0.0611317
1.76519
-0.0389437
1.58593
0.0805883
1.34325
0.207698
1.08245
0.366558
0.686787
0.538265
0.178003
0.668718
-0.275491
0.755412
-0.260125
0.744269
0.584008
0.363885
2.66069
-0.326206
3.8418
-1.01315
3.85427
-1.72092
5.30547
-1.73147
6.22648
-1.06047
4.48568
-0.322608
1.68816
0.233478
0.2619
0.383734
0.450302
-1.03575
0.548988
-2.46145
-3.23367
-2.38781
-4.83185
-1.73527
-3.68626
-0.756618
-3.13825
-0.102457
-3.71124
0.582363
-5.90545
1.14171
-2.7598
0.639589
5.30566
0.117305
10.3315
-0.478279
10.7175
-2.01447
8.30752
-3.76314
1.42874
-4.18578
-4.47485
-4.06451
-6.07239
-3.72737
-3.37521
-3.20228
-1.29257
-3.41308
0.185546
-3.76636
1.94464
-3.24867
2.3051
-1.91192
-1.03826
-2.48026
-2.22922
-3.39882
-2.46587
-3.47213
-3.47797
-3.55491
-0.702489
-3.63199
0.604197
-3.658
0.859863
-3.55634
0.271019
-3.59272
-0.558723
-3.64456
-1.01412
-3.57942
-0.436207
-3.62151
-0.319766
-3.65498
-1.04751
-3.60509
-1.31017
-3.55281
-1.21942
-3.41775
-1.23898
-3.27105
-1.35613
-3.07143
-1.49533
-2.9239
-1.4615
-2.74862
-1.37332
-2.55659
-1.26475
-2.36419
-1.20815
-2.16282
-1.18223
-1.94618
-1.14236
-1.71959
-1.1222
-1.49335
-1.04263
-1.32313
-0.920933
-1.1982
-0.815938
-0.999436
-0.71985
-0.864035
-0.596296
-0.786151
-0.490624
-0.685519
-0.393745
-0.573105
-0.359275
-0.451542
-0.388186
-0.331124
-0.453554
-0.219873
-0.617317
-0.0871513
-0.703426
0.053954
-0.697736
0.182013
-0.570046
0.288866
-0.375542
0.356735
-0.149515
0.394937
0.0295881
0.407595
-0.144453
0.417455
-0.359269
0.345516
-0.382676
0.223505
-0.135117
0.00450748
0.412621
-0.301527
0.860601
-0.548598
0.945572
-0.69345
0.760566
-0.743827
0.458974
-0.726803
0.198526
-0.618754
-0.10857
-0.398412
-0.408883
-0.176315
-0.253019
-0.0789603
0.0860555
-0.0263674
0.0636662
0.0130709
-0.126225
0.0295749
-0.199385
0.00510156
-0.0588308
-0.0327406
0.0601175
-0.102325
0.0960309
1.67415
0.224608
1.45735
0.423191
1.14466
0.664185
0.841449
0.850805
0.500169
1.05115
-0.0223416
1.29197
-0.516307
1.45411
-0.422268
1.33171
0.706414
0.958569
3.03383
0.407373
4.393
-0.305087
4.56674
-0.740322
5.74071
-0.397082
5.88325
0.682
3.40661
1.5042
0.865969
1.77093
-0.00483068
1.09166
1.12957
-0.427244
2.06789
-2.18642
-1.4745
-4.11838
-2.8999
-4.34601
-3.45863
-3.88779
-3.59647
-4.00722
-3.59183
-2.40198
-7.5107
-0.831143
-4.33063
-0.288674
4.76318
0.729535
9.31326
0.863701
10.5833
0.860402
8.31082
0.969805
1.31934
-0.193838
-3.3112
-2.60489
-3.66133
-3.32038
-2.65971
-2.98367
-1.62928
-2.72239
-0.0757146
-2.0471
1.26936
-1.33622
1.59424
-0.599218
-1.77525
-1.81971
-1.00872
-3.59793
-0.687634
-3.8464
-3.22948
-3.31887
-1.23001
-3.08938
0.374717
-2.8445
0.614997
-2.70382
0.130343
-2.83851
-0.424022
-2.83901
-1.01361
-2.78229
-0.492919
-2.77721
-0.324844
-2.93486
-0.889853
-3.13901
-1.10601
-3.25304
-1.10539
-3.14347
-1.34855
-3.00134
-1.49825
-2.88586
-1.6108
-2.75042
-1.59695
-2.60702
-1.51671
-2.39673
-1.47504
-2.27303
-1.33184
-2.1151
-1.34015
-1.92185
-1.33561
-1.71925
-1.32479
-1.50612
-1.25576
-1.32796
-1.0991
-1.11705
-1.02684
-0.985075
-0.851831
-0.91624
-0.665133
-0.831458
-0.575409
-0.730346
-0.49486
-0.596124
-0.493501
-0.472976
-0.511338
-0.39877
-0.527764
-0.28912
-0.726974
-0.161525
-0.831029
-0.0239707
-0.835299
0.107265
-0.70129
0.218973
-0.487259
0.310016
-0.240566
0.352325
-0.0127286
0.350908
-0.143041
0.291053
-0.299419
0.174851
-0.266476
-0.0409823
0.0807137
-0.340652
0.712289
-0.667797
1.18775
-0.923269
1.20105
-1.03353
0.870831
-1.03521
0.460653
-0.960948
0.124263
-0.797494
-0.272024
-0.565765
-0.640614
-0.334124
-0.484665
-0.169762
-0.0783136
-0.0829167
-0.0231879
-0.03669
-0.172464
-0.0438021
-0.192286
-0.0796252
-0.0230181
-0.121877
0.102362
-0.0780565
0.269294
1.40985
0.49329
1.23334
0.742971
0.894974
0.955233
0.629185
1.11917
0.336229
1.28139
-0.184559
1.45849
-0.693411
1.65589
-0.619664
1.6618
0.700502
1.40517
3.29045
0.868462
4.92972
0.371945
5.06326
0.112744
5.99992
0.291744
5.70426
1.17211
2.52625
2.10903
-0.0709455
2.08341
0.0207854
1.15895
2.05404
0.347699
2.87914
-0.834972
-0.291828
-3.00381
-0.731066
-4.3027
-2.15975
-4.42744
-3.47174
-4.77302
-3.24626
-5.27201
-7.01172
-4.76784
-4.83481
-2.9804
2.97573
-1.57776
7.91061
-0.0751127
9.08064
1.70241
6.5333
1.77768
1.24407
0.586684
-2.1202
-1.79077
-1.28387
-3.43132
-1.01915
-3.68903
-1.37156
-3.20667
-0.558051
-2.72485
0.787552
-1.69669
0.566093
-0.318239
-3.15369
-1.15476
-0.172191
-2.83328
0.990902
-3.81301
-2.24973
-3.62639
-1.4166
-3.05227
-0.199395
-2.41827
-0.018994
-2.07139
-0.216522
-1.94974
-0.54567
-1.94421
-1.01914
-1.84096
-0.596161
-1.82312
-0.342677
-2.16559
-0.547382
-2.44993
-0.821666
-2.57552
-0.979796
-2.62957
-1.2945
-2.59343
-1.53439
-2.56422
-1.64001
-2.49331
-1.66785
-2.3908
-1.61922
-2.33774
-1.5281
-2.18527
-1.48431
-2.02247
-1.50295
-1.85009
-1.50798
-1.66732
-1.50756
-1.48194
-1.44114
-1.25563
-1.32541
-1.10178
-1.1807
-0.978935
-0.974675
-0.884394
-0.759676
-0.826137
-0.633669
-0.710491
-0.610508
-0.597948
-0.606047
-0.502729
-0.606561
-0.425298
-0.605201
-0.35619
-0.796088
-0.227594
-0.959632
-0.0994864
-0.963415
0.026193
-0.826978
0.147727
-0.608802
0.242552
-0.335398
0.307884
-0.0780672
0.283617
-0.11878
0.182566
-0.198372
0.0070976
-0.091011
-0.267238
0.355047
-0.633652
1.0787
-0.985107
1.5392
-1.21519
1.43113
-1.29227
0.947915
-1.22404
0.392417
-1.08292
-0.0168561
-0.907277
-0.447665
-0.669796
-0.878097
-0.412169
-0.742296
-0.247551
-0.242938
-0.140471
-0.130278
-0.0943125
-0.218634
-0.126593
-0.160017
-0.170986
0.0213643
-0.187227
0.118597
-0.0826993
0.383804
1.03104
0.711042
0.9061
0.937205
0.668807
1.13701
0.429382
1.29205
0.181181
1.49764
-0.390141
1.74194
-0.937714
1.84325
-0.720977
1.68281
0.860934
1.54731
3.42596
1.11509
5.36194
0.879193
5.29917
0.659283
6.21984
0.682645
5.68091
1.42984
1.77907
1.93486
-0.575967
1.43956
0.516091
0.915057
2.57854
0.892554
2.90164
-1.02824
1.62896
-3.07474
1.31544
-3.55924
-1.67527
-4.00102
-3.02997
-5.04211
-2.20518
-6.94087
-5.11297
-6.30294
-5.47274
-4.04168
0.714458
-2.53752
6.40644
-0.500525
7.04364
1.93293
4.09984
2.81878
0.358224
2.52238
-1.8238
0.890386
0.348127
-1.13328
1.00453
-2.89483
0.390015
-3.32995
-0.122913
-2.97169
0.429306
-2.50196
0.0963823
-0.645606
-5.01004
-1.02485
0.207059
-2.3122
2.27828
-3.1474
-1.41452
-2.62116
-1.94282
-2.25843
-0.562112
-1.88576
-0.391653
-1.42792
-0.674355
-1.22406
-0.749524
-0.953398
-1.2898
-0.765176
-0.78438
-0.90337
-0.20448
-1.32605
-0.124702
-1.64991
-0.497798
-1.93545
-0.694251
-2.11634
-1.1136
-2.16742
-1.48331
-2.21257
-1.59486
-2.19739
-1.68302
-2.14613
-1.67048
-2.1017
-1.57252
-2.01364
-1.57237
-1.88333
-1.63326
-1.74282
-1.64849
-1.59216
-1.65822
-1.42797
-1.60533
-1.25105
-1.50233
-1.0965
-1.33524
-0.965031
-1.10615
-0.855586
-0.869122
-0.767763
-0.721495
-0.685746
-0.692527
-0.592016
-0.69978
-0.515549
-0.683032
-0.44491
-0.675844
-0.375293
-0.865712
-0.285833
-1.0491
-0.176778
-1.07248
-0.0585299
-0.945234
0.0565242
-0.723863
0.173414
-0.452296
0.236938
-0.141597
0.208929
-0.0907754
0.080565
-0.0700111
-0.136246
0.125797
-0.467367
0.686166
-0.885032
1.49637
-1.24346
1.89762
-1.42939
1.61706
-1.43719
0.955721
-1.32432
0.279545
-1.12433
-0.216848
-0.908689
-0.663305
-0.724722
-1.06207
-0.515599
-0.951422
-0.323432
-0.435112
-0.193203
-0.260516
-0.161933
-0.249916
-0.211912
-0.11005
-0.238564
0.0480058
-0.235543
0.115569
-0.0730794
0.434356
0.601685
0.807956
0.532494
1.03534
0.44142
1.18542
0.279302
1.39125
-0.0246542
1.55851
-0.557401
1.66634
-1.04555
1.64366
-0.698305
1.55638
0.948221
1.68223
3.3001
1.35705
5.68713
1.08869
5.56754
0.664109
6.64443
0.836685
5.50835
1.80565
0.810106
2.099
-0.869316
0.719592
1.8955
0.0576227
3.24051
0.741961
2.2173
-0.268101
2.63902
-1.46088
2.50821
-2.70329
-0.432862
-3.34168
-2.39158
-2.62728
-2.91959
-4.22703
-3.51323
-6.31933
-3.38045
-4.82202
-0.782863
-1.70092
3.28533
-0.100866
5.44358
2.12467
1.8743
4.50169
-2.0188
4.89878
-2.22089
3.91483
1.33208
2.23032
2.68904
0.151871
2.46848
-1.70404
1.73302
-2.64349
1.36878
-2.49386
-0.0532354
-1.28398
-6.2199
-1.1024
0.0254866
-1.15972
2.33561
-1.5677
-1.00651
-1.52652
-1.98398
-1.43056
-0.65806
-1.3579
-0.464311
-1.01716
-1.01508
-0.538178
-1.2285
-0.289075
-1.5389
-0.27828
-0.795172
-0.40599
-0.076767
-0.599185
0.0684946
-0.928427
-0.168553
-1.30762
-0.315052
-1.59639
-0.824835
-1.75923
-1.32047
-1.87043
-1.48365
-1.89771
-1.65575
-1.87795
-1.69024
-1.85401
-1.59647
-1.80182
-1.62455
-1.71048
-1.72459
-1.60313
-1.75584
-1.48804
-1.77331
-1.34714
-1.74624
-1.20806
-1.64141
-1.07244
-1.47086
-0.959803
-1.21879
-0.801751
-1.02718
-0.692195
-0.831052
-0.651708
-0.733017
-0.5809
-0.770591
-0.513324
-0.750612
-0.464308
-0.724864
-0.412718
-0.917307
-0.343733
-1.11809
-0.258344
-1.15787
-0.158106
-1.04548
-0.0402421
-0.841735
0.0742446
-0.566789
0.147555
-0.214912
0.108882
-0.0521067
-0.0353155
0.0741827
-0.27749
0.367969
-0.642747
1.05142
-1.10479
1.95841
-1.45389
2.24672
-1.57784
1.74102
-1.50735
0.885233
-1.33105
0.103248
-1.12552
-0.422379
-0.918723
-0.870104
-0.717413
-1.26338
-0.524003
-1.14484
-0.374002
-0.585119
-0.254329
-0.380198
-0.244745
-0.259513
-0.290895
-0.0639122
-0.308272
0.0653723
-0.284645
0.0919351
-0.0867645
0.472176
0.134505
0.865433
0.139231
1.12187
0.184978
1.24666
0.154506
1.38876
-0.166757
1.5526
-0.721237
1.54047
-1.03343
1.41353
-0.571378
1.3351
1.02665
1.61049
3.0247
1.4611
5.83653
1.03331
5.99534
0.685109
6.99265
1.20911
4.98436
2.06533
-0.046105
1.46038
-0.264368
-0.554053
3.90994
-0.672107
3.35856
0.73043
0.814762
0.141266
3.22818
-1.57712
4.22658
-2.85422
0.844231
-2.08078
-3.16503
-0.844802
-4.15558
-2.16447
-2.19356
-4.17744
-1.36749
-3.54291
-1.4174
-1.87652
1.61893
-0.268399
3.83545
2.77226
-1.16636
5.28061
-4.52716
6.24515
-3.18542
6.02847
1.54876
4.64541
4.07211
3.20785
3.90604
1.14737
3.79351
-0.640261
3.15642
-1.56414
0.87066
-2.50747
-5.27656
-1.36675
-1.11522
-0.183948
1.15282
-0.347582
-0.842863
-0.535399
-1.79615
-0.59085
-0.6026
-0.627372
-0.427782
-0.490865
-1.15158
-0.177089
-1.54227
0.0117996
-1.72778
0.0524755
-0.835845
0.0175052
-0.0417942
-0.0862123
0.172214
-0.432732
0.177969
-0.784179
0.0363965
-1.14644
-0.462578
-1.45707
-1.00984
-1.5842
-1.35651
-1.62037
-1.61958
-1.61963
-1.69097
-1.61584
-1.60026
-1.58396
-1.65643
-1.52628
-1.78227
-1.45745
-1.82467
-1.36572
-1.86504
-1.25519
-1.85677
-1.14206
-1.75454
-1.08068
-1.53223
-0.952533
-1.34695
-0.812823
-1.16689
-0.732284
-0.911594
-0.635316
-0.829986
-0.556704
-0.849205
-0.514687
-0.792633
-0.484047
-0.755507
-0.452058
-0.949302
-0.413985
-1.15617
-0.355164
-1.2167
-0.270929
-1.12972
-0.165114
-0.947556
-0.0383717
-0.693536
0.0264891
-0.279778
-0.0160771
-0.00954426
-0.160817
0.218919
-0.428847
0.635997
-0.835298
1.45787
-1.30094
2.42406
-1.58885
2.53463
-1.63251
1.78468
-1.51737
0.770092
-1.31713
-0.0969965
-1.08579
-0.653713
-0.86603
-1.08987
-0.690468
-1.43894
-0.519626
-1.31568
-0.389529
-0.715222
-0.306529
-0.463207
-0.316549
-0.249505
-0.374367
-0.00610649
-0.374353
0.0653479
-0.314896
0.0324704
-0.101354
0.491196
-0.351694
0.869135
-0.238715
1.12829
-0.0741819
1.28339
-0.000597439
1.41811
-0.301485
1.46047
-0.763595
1.30399
-0.87695
1.08652
-0.353919
0.999201
1.11397
1.38409
2.63981
1.44785
5.77279
0.812962
6.63023
0.647004
7.15862
1.58564
4.04574
2.09152
-0.551979
0.560584
1.26657
-0.851445
5.32197
-0.419311
2.92642
0.215502
0.179947
-0.491284
3.93496
-1.45586
5.19115
-1.92176
1.31013
-1.62838
-3.45841
-0.877449
-4.90652
-1.27051
-1.8005
-3.04192
0.40392
-2.92791
-1.53143
-0.798102
-0.510879
1.52786
1.50948
4.16739
-3.80589
5.71541
-6.07518
5.87041
-3.34042
5.81119
1.60798
5.91687
3.96643
5.6729
4.15002
3.89295
5.57346
1.87758
5.17179
0.31513
2.43312
-1.56684
-3.39458
-0.537217
-2.14483
0.382536
0.233074
0.554489
-1.01481
0.251427
-1.49308
0.185634
-0.536799
0.0909735
-0.333115
-0.0724892
-0.988115
-0.118846
-1.49591
-0.152911
-1.69371
-0.072251
-0.916502
0.0105199
-0.124562
0.000785379
0.18195
-0.0948555
0.273611
-0.377009
0.318551
-0.821757
-0.0178288
-1.10984
-0.721756
-1.28807
-1.17828
-1.34895
-1.55869
-1.35266
-1.68726
-1.36666
-1.58626
-1.35743
-1.66566
-1.38519
-1.7545
-1.31952
-1.89033
-1.24163
-1.94293
-1.18796
-1.91044
-1.11639
-1.82611
-1.01663
-1.63199
-0.914164
-1.44941
-0.835121
-1.24593
-0.712277
-1.03444
-0.580414
-0.961851
-0.52314
-0.906483
-0.521472
-0.794303
-0.496774
-0.780209
-0.490007
-0.956074
-0.484591
-1.16159
-0.468285
-1.23301
-0.411822
-1.18619
-0.307587
-1.0518
-0.201653
-0.799475
-0.133371
-0.348064
-0.152428
0.00950902
-0.307306
0.373795
-0.60319
0.931881
-1.01725
1.87193
-1.46033
2.86714
-1.65807
2.73237
-1.6403
1.76691
-1.48142
0.611219
-1.24611
-0.332306
-1.03347
-0.866355
-0.816338
-1.307
-0.639859
-1.61542
-0.509406
-1.44614
-0.428007
-0.796628
-0.364539
-0.526685
-0.3999
-0.214156
-0.459264
0.0532442
-0.434943
0.0410164
-0.351102
-0.0513786
-0.133445
0.478716
-0.825413
0.865092
-0.625098
1.11989
-0.328985
1.31342
-0.194127
1.40157
-0.38964
1.33719
-0.699224
1.0879
-0.627667
0.752148
-0.0181761
0.458776
1.40734
0.677684
2.4209
1.31727
5.13321
0.651365
7.29615
0.431495
7.37852
1.59312
2.88413
1.95637
-0.915227
-0.220118
3.44306
-1.24598
6.34783
-0.994267
2.67471
-1.4847
0.67038
-1.56523
4.01549
-1.17906
4.80498
-0.914432
1.04549
-1.47611
-2.89674
-2.31825
-4.06438
-2.37214
-1.74662
-3.44303
1.47481
-3.08638
-1.88808
-0.25387
-3.3434
2.69742
-1.44182
4.98134
-6.08981
5.75026
-6.8441
5.11467
-2.70484
4.76086
1.96181
5.6538
3.07349
5.71668
4.08715
4.69484
6.5953
3.41615
6.45049
1.93989
3.90939
-0.807556
-0.647133
-0.906593
-2.04578
0.482133
-1.15564
1.2183
-1.75096
0.892037
-1.16682
0.831205
-0.475961
0.659705
-0.161609
0.44411
-0.772515
0.224805
-1.2766
-0.103914
-1.36499
-0.183917
-0.836495
-0.0792257
-0.229251
0.00201459
0.100712
-0.0174323
0.293059
-0.0932406
0.39436
-0.350774
0.239705
-0.737271
-0.335258
-0.982228
-0.933317
-1.07199
-1.46893
-1.092
-1.66725
-1.07009
-1.60816
-1.12135
-1.6144
-1.14739
-1.72846
-1.14183
-1.8959
-1.10296
-1.9818
-1.02908
-1.98432
-0.981355
-1.87384
-0.923587
-1.68976
-0.889722
-1.48328
-0.788961
-1.34669
-0.643253
-1.18015
-0.559057
-1.04605
-0.507241
-0.958301
-0.468186
-0.83336
-0.489312
-0.759086
-0.526033
-0.919358
-0.573086
-1.11455
-0.611163
-1.19494
-0.588325
-1.20904
-0.48598
-1.15415
-0.365658
-0.919802
-0.292595
-0.421131
-0.31838
0.0352913
-0.472119
0.527531
-0.771699
1.23146
-1.22726
2.32749
-1.61237
3.25225
-1.70007
2.82007
-1.58741
1.65425
-1.39191
0.415719
-1.17434
-0.54987
-0.973397
-1.0673
-0.765243
-1.51516
-0.606593
-1.77407
-0.50943
-1.54331
-0.459343
-0.846721
-0.42286
-0.563177
-0.482092
-0.154938
-0.536779
0.107917
-0.483786
-0.011988
-0.374902
-0.16027
-0.162424
0.454007
-1.27442
0.827135
-0.998234
1.09868
-0.600537
1.27567
-0.371121
1.32369
-0.437663
1.1976
-0.573144
0.882123
-0.3122
0.453952
0.409986
0.166139
1.69514
0.277503
2.30954
0.929233
4.48149
0.663793
7.56161
0.70889
7.33344
1.63168
1.96135
1.55363
-0.837171
-0.097045
5.09374
-1.01391
7.2647
-2.27641
3.93721
-3.6254
2.01936
-2.81107
3.20115
-1.55603
3.54993
-1.22184
0.711297
-1.92082
-2.19776
-2.27252
-3.71269
-2.32016
-1.69899
-2.10113
1.25577
-0.951129
-3.03809
0.802312
-5.09685
3.66382
-4.30333
5.32623
-7.75222
5.17897
-6.69684
4.01197
-1.53784
3.54042
2.43337
4.60502
2.00889
4.90269
3.78949
4.84682
6.65118
4.38452
6.91279
3.12045
5.17346
0.531622
1.9417
0.283605
-1.79776
1.48974
-2.36177
1.69058
-1.95179
1.45743
-0.933665
1.27655
-0.295079
1.00049
0.114456
0.596043
-0.368059
0.295997
-0.976549
-0.0613124
-1.00767
-0.216602
-0.681202
-0.0908516
-0.354999
-0.0595185
0.0693802
0.0293775
0.204164
0.0459299
0.377808
-0.171755
0.45739
-0.463231
-0.0437812
-0.72451
-0.672036
-0.814579
-1.37886
-0.792524
-1.6893
-0.859421
-1.54126
-0.914789
-1.55903
-0.951445
-1.6918
-1.02194
-1.8254
-0.976377
-2.02736
-0.86392
-2.09678
-0.847184
-1.89058
-0.861304
-1.67564
-0.810285
-1.5343
-0.729977
-1.427
-0.624269
-1.28586
-0.516838
-1.15348
-0.485086
-0.990054
-0.467565
-0.850883
-0.480431
-0.746223
-0.559106
-0.840686
-0.670334
-1.00332
-0.799543
-1.06574
-0.807509
-1.20108
-0.692077
-1.26958
-0.558319
-1.05356
-0.47813
-0.501323
-0.499957
0.057116
-0.640061
0.667633
-0.976791
1.56819
-1.4063
2.757
-1.68496
3.5309
-1.68966
2.82478
-1.53358
1.49817
-1.31087
0.193012
-1.10013
-0.760611
-0.918344
-1.24909
-0.726033
-1.70747
-0.580995
-1.91911
-0.507085
-1.61722
-0.49321
-0.860604
-0.498388
-0.558009
-0.572849
-0.0804904
-0.598779
0.133833
-0.502158
-0.108621
-0.376114
-0.286322
-0.186333
0.418294
-1.68772
0.785952
-1.3659
1.0464
-0.860995
1.2268
-0.551522
1.28952
-0.500387
1.11952
-0.403155
0.78666
0.0206493
0.380364
0.81627
0.125136
1.95037
0.0374829
2.39719
0.505897
4.01309
0.682784
7.38474
1.03799
6.97826
1.62995
1.36939
0.993355
-0.200567
-0.748418
6.83551
-1.1095
7.62579
-1.47639
4.3041
-3.52838
4.07135
-3.45213
3.1249
-2.01779
2.11558
-1.2903
-0.0162079
-0.618029
-2.87004
-0.998857
-3.33187
-1.54063
-1.15722
-0.174089
-0.110783
1.33152
-4.5437
1.97379
-5.73913
4.27321
-6.60275
5.45699
-8.936
4.77435
-6.0142
3.52119
-0.284676
2.91244
3.04212
4.09801
0.823318
4.10206
3.78545
4.15678
6.59646
4.00374
7.06583
3.53211
5.6451
2.83524
2.63858
1.79104
-0.753551
1.69617
-2.26691
2.02489
-2.28051
1.85796
-0.76673
1.64542
-0.0825339
1.18632
0.573559
0.60371
0.214554
0.233839
-0.606673
0.0460431
-0.819873
-0.0565384
-0.578616
-0.0415465
-0.369988
-0.0501796
0.0780142
-0.0469007
0.200885
0.068084
0.262823
-0.00717233
0.532646
-0.273828
0.222875
-0.477683
-0.468181
-0.584714
-1.27183
-0.675934
-1.59808
-0.686391
-1.5308
-0.718203
-1.52721
-0.818909
-1.59109
-0.844149
-1.80016
-0.822766
-2.04875
-0.802731
-2.11681
-0.7492
-1.94411
-0.717501
-1.70734
-0.722523
-1.52928
-0.675691
-1.47384
-0.599141
-1.36241
-0.54578
-1.20685
-0.484538
-1.0513
-0.467492
-0.867931
-0.495769
-0.717948
-0.586688
-0.749772
-0.781139
-0.808877
-1.02749
-0.819392
-1.09231
-1.13626
-0.913883
-1.44802
-0.765826
-1.20162
-0.675466
-0.591686
-0.676729
0.058377
-0.826475
0.817378
-1.18469
1.9264
-1.57063
3.14294
-1.71914
3.67941
-1.62655
2.7322
-1.43336
1.30499
-1.21455
-0.0258032
-1.02106
-0.954094
-0.851451
-1.4187
-0.682222
-1.8767
-0.562732
-2.03861
-0.522211
-1.65774
-0.532703
-0.85012
-0.570114
-0.520608
-0.646906
-0.00371295
-0.620637
0.10755
-0.502097
-0.227172
-0.373982
-0.414444
-0.222752
0.377387
-2.06011
0.723134
-1.71166
0.987911
-1.12578
1.14733
-0.71095
1.16538
-0.518447
0.990424
-0.228204
0.703756
0.307307
0.441811
1.0782
0.272924
2.11925
0.0869012
2.58322
0.0899289
4.01007
0.236666
7.23802
1.03637
6.17857
1.51197
0.893801
0.320784
0.990623
-1.40338
8.55968
-1.09051
7.31292
-0.568061
3.78164
-2.18795
5.69123
-1.81666
2.7536
-0.439848
0.738765
0.0381765
-0.494238
1.38598
-4.21785
1.96744
-3.91334
1.97466
-1.16444
2.84786
-0.983987
3.0286
-4.72445
3.27326
-5.9838
4.76754
-8.09704
5.24297
-9.41144
4.17661
-4.94784
3.00833
0.883598
2.78166
3.2688
3.32899
0.275994
2.60128
4.51316
3.10475
6.09299
3.73284
6.43775
3.73709
5.64085
3.7359
2.63977
2.72115
0.261199
2.16805
-1.71381
2.27661
-2.38906
2.04462
-0.534732
1.73942
0.222661
1.05744
1.25555
0.308218
0.963775
0.0128246
-0.311275
0.0405286
-0.847573
0.136103
-0.674188
0.204017
-0.437901
0.193787
0.0882451
0.193729
0.200942
0.189405
0.267147
0.162731
0.559319
0.0190418
0.366564
-0.200488
-0.24865
-0.373264
-1.09905
-0.461753
-1.50959
-0.493573
-1.49898
-0.535816
-1.48497
-0.611621
-1.51529
-0.657015
-1.75476
-0.655662
-2.0501
-0.654156
-2.11832
-0.640713
-1.95755
-0.672186
-1.67587
-0.656294
-1.54517
-0.620946
-1.50919
-0.567758
-1.4156
-0.520406
-1.2542
-0.500854
-1.07085
-0.473921
-0.894865
-0.506862
-0.685009
-0.640169
-0.616468
-0.907717
-0.541333
-1.2658
-0.461316
-1.4171
-0.984962
-1.20814
-1.65698
-0.998063
-1.4117
-0.89501
-0.694742
-0.851461
0.0148269
-1.01542
0.981336
-1.39134
2.30233
-1.67476
3.42636
-1.68055
3.6852
-1.51942
2.57107
-1.31508
1.10064
-1.11239
-0.228491
-0.950137
-1.11634
-0.789846
-1.57899
-0.640883
-2.02566
-0.547184
-2.13231
-0.535498
-1.66944
-0.573401
-0.812225