/*--------------------------------*- C++ -*----------------------------------*\
| =========                 |                                                 |
| \\      /  F ield         | foam-extend: Open Source CFD                    |
|  \\    /   O peration     | Version:     5.0                                |
|   \\  /    A nd           | Web:         http://www.foam-extend.org         |
|    \\/     M anipulation  |                                                 |
\*---------------------------------------------------------------------------*/
FoamFile
{
    version     2.0;
    format      ascii;
    class       volVectorField;
    location    "0.085";
    object      U;
}
// * * * * * * * * * * * * * * * * * * * * * * * * * * * * * * * * * * * * * //

dimensions      [0 1 -1 0 0 0 0];

internalField   nonuniform List<vector> 
4000
(
(-21.0594 6.49097 0)
(-69.7723 7.71629 0)
(-129.015 8.15413 0)
(-191.197 6.32968 0)
(-230.442 4.65777 0)
(-262.277 6.02617 0)
(-316.204 4.31128 0)
(-329.801 -0.864393 0)
(-337.639 4.84401 0)
(-411.101 1.93039 0)
(-454.996 5.70232 0)
(-561.321 24.7989 0)
(-566.563 8.82905 0)
(-758.542 31.6502 0)
(-1006.99 45.4455 0)
(-1379.99 71.5699 0)
(-1617.14 40.2316 0)
(-1688.45 1.45725 0)
(-1625.14 -11.7585 0)
(-1590.59 -14.2972 0)
(-1453.83 -19.849 0)
(-1240.51 -38.5471 0)
(-1004.45 -36.234 0)
(-939.238 -26.2562 0)
(-908.119 1.46012 0)
(-863.086 -18.8166 0)
(-716.491 -34.4996 0)
(-596.687 54.2203 0)
(-714.456 67.1586 0)
(-1141.67 32.5622 0)
(-1494.52 21.5281 0)
(-1311.09 -13.1015 0)
(-1045.68 -16.5896 0)
(-807.31 -26.0614 0)
(-695.621 -14.3051 0)
(-614.27 6.38582 0)
(-629.498 7.13088 0)
(-605.919 17.0762 0)
(-686.661 15.4501 0)
(-690.679 19.3464 0)
(-687.616 9.87438 0)
(-683.048 10.047 0)
(-647.972 10.6944 0)
(-673.977 -10.3646 0)
(-621.64 -9.85087 0)
(-594.188 -3.69823 0)
(-569.545 -4.01702 0)
(-519.406 -5.74374 0)
(-516.686 -6.4514 0)
(-465.077 -8.4476 0)
(-427.469 -6.68842 0)
(-362.481 -4.64048 0)
(-349.454 -3.72559 0)
(-300.614 -3.44902 0)
(-276.897 -3.5231 0)
(-242.612 -3.92133 0)
(-207.177 -5.54151 0)
(-153.768 -4.71561 0)
(-134.721 -3.4637 0)
(-98.5129 -2.87459 0)
(-86.5564 -2.24401 0)
(-58.6257 -3.22148 0)
(-43.0319 -0.969272 0)
(-38.6467 -1.1962 0)
(-22.4105 -0.258783 0)
(-22.8254 0.201998 0)
(-18.4225 -0.249677 0)
(-15.6057 -0.0956005 0)
(-11.3557 -0.453996 0)
(-7.73295 -0.386651 0)
(-2.92407 -0.0906144 0)
(-3.73464 0.230982 0)
(-2.48689 -0.478992 0)
(4.93423 -1.3073 0)
(16.2722 -1.19804 0)
(25.1756 -0.979435 0)
(33.6031 -0.583555 0)
(36.5107 -0.18543 0)
(37.4928 0.301398 0)
(32.4422 0.573751 0)
(30.3539 -0.158005 0)
(36.9835 -0.557799 0)
(42.4863 -1.76972 0)
(64.1971 -1.42974 0)
(66.5818 -0.642063 0)
(67.5022 -0.263171 0)
(68.6045 0.702095 0)
(54.0465 1.62077 0)
(47.4278 0.605999 0)
(42.9087 0.300908 0)
(44.5867 0.568505 0)
(34.9376 1.84326 0)
(24.6523 2.12529 0)
(11.0793 1.2311 0)
(3.32423 0.480681 0)
(1.56528 -0.0473105 0)
(5.12744 -0.574054 0)
(9.52141 -0.624184 0)
(12.5536 -0.306001 0)
(18.6332 -0.605767 0)
(-45.9555 21.561 0)
(-138.34 26.9331 0)
(-235.951 28.0247 0)
(-321.351 23.5363 0)
(-390.063 18.9195 0)
(-460.564 18.5267 0)
(-481.835 10.9562 0)
(-482.598 -1.93805 0)
(-449.578 6.2909 0)
(-478.742 21.6127 0)
(-615.856 28.193 0)
(-767.387 14.2452 0)
(-868.802 35.9922 0)
(-1247.84 118.145 0)
(-1811.38 149.374 0)
(-2133.37 102.372 0)
(-2142.59 33.4223 0)
(-2094.86 -19.8616 0)
(-2024.73 -44.8466 0)
(-1645.04 -49.76 0)
(-1422.85 -57.8629 0)
(-1449.3 -70.322 0)
(-1458.72 -43.1318 0)
(-1600.21 -7.45961 0)
(-1392.29 -34.5996 0)
(-920.68 -73.5281 0)
(-771.403 -71.1768 0)
(-629.723 -58.8759 0)
(-1040.6 111.835 0)
(-1844.26 217.685 0)
(-2578.56 68.6704 0)
(-2060.8 -112.808 0)
(-1404.24 -93.5129 0)
(-884.989 -41.789 0)
(-769.157 -17.6328 0)
(-848.211 -6.52889 0)
(-731.837 -5.59394 0)
(-785.216 15.6675 0)
(-839.219 28.4994 0)
(-981.7 -2.62432 0)
(-940.559 -16.1841 0)
(-872.248 -3.46265 0)
(-858.321 5.67002 0)
(-845.199 -1.22775 0)
(-917.357 -7.16665 0)
(-997.17 -6.02287 0)
(-942.522 -12.044 0)
(-908.518 -12.6268 0)
(-845.52 -9.21533 0)
(-868.431 -18.815 0)
(-779.527 -21.4209 0)
(-734.338 -17.5755 0)
(-661.654 -15.2719 0)
(-632.254 -16.2516 0)
(-547.656 -17.3296 0)
(-496.45 -15.0551 0)
(-415.891 -17.1445 0)
(-390.755 -15.6527 0)
(-314.416 -12.588 0)
(-293.561 -11.1405 0)
(-227.903 -9.38763 0)
(-212.918 -7.97952 0)
(-186.945 -6.41719 0)
(-135.564 -6.85184 0)
(-124.061 -3.93965 0)
(-78.6106 -2.97043 0)
(-77.5002 -2.46405 0)
(-55.3878 -1.92231 0)
(-39.9027 -2.24271 0)
(-37.0193 -2.10472 0)
(-20.63 -1.24491 0)
(-17.8471 -0.044304 0)
(-13.63 -1.92639 0)
(0.358348 -4.83278 0)
(25.653 -4.92603 0)
(46.0911 -4.27747 0)
(67.2708 -2.87449 0)
(76.1611 -0.986949 0)
(78.8528 0.929939 0)
(71.6273 1.97601 0)
(65.0977 -1.40263 0)
(89.1622 -4.32192 0)
(113.341 -6.59589 0)
(131.509 -5.59682 0)
(155.314 -1.58681 0)
(140.375 0.824949 0)
(138.403 3.77664 0)
(101.307 5.02871 0)
(94.4069 2.39167 0)
(77.2604 1.30562 0)
(74.2666 1.76451 0)
(61.1976 4.40354 0)
(51.269 6.46663 0)
(26.0775 5.07694 0)
(10.5758 2.13901 0)
(7.26718 -0.443783 0)
(16.9589 -2.09818 0)
(23.1924 -1.73033 0)
(19.1195 -1.08342 0)
(34.5072 -2.25796 0)
(-49.3002 45.6865 0)
(-131.611 50.8012 0)
(-207.954 48.2598 0)
(-287.071 41.9916 0)
(-354.883 37.0052 0)
(-417.665 27.4538 0)
(-400.557 6.37492 0)
(-384.776 -5.20602 0)
(-389.643 14.0784 0)
(-423.239 50.6257 0)
(-627.453 75.9572 0)
(-723.679 75.4486 0)
(-1016.28 128.277 0)
(-1269.98 197.019 0)
(-1409.46 195.808 0)
(-1430.64 114.166 0)
(-1482.14 31.168 0)
(-1545.32 -29.7483 0)
(-1591 -88.4053 0)
(-1494.72 -111.864 0)
(-1257.76 -98.2933 0)
(-1123.74 -64.481 0)
(-1181.63 -16.3676 0)
(-1090.75 -21.1014 0)
(-577.821 -151.95 0)
(-227.483 -154.68 0)
(-470.062 -67.8508 0)
(-1058.9 91.4611 0)
(-2095.95 344.734 0)
(-2729.01 389.345 0)
(-1798.52 -37.4599 0)
(-1851.25 -314.398 0)
(-1825.66 -300.416 0)
(-1227.67 -170.445 0)
(-1253.34 -64.1002 0)
(-1328.95 -21.0792 0)
(-1231.56 -36.7678 0)
(-1168.67 19.6277 0)
(-1345.54 58.9292 0)
(-1381.45 18.225 0)
(-1304.51 -24.1443 0)
(-1079.63 -20.2471 0)
(-887.314 -2.00802 0)
(-887.707 2.0796 0)
(-946.39 12.9667 0)
(-1047.59 5.93966 0)
(-1035.4 -20.1162 0)
(-992.627 -24.9368 0)
(-902.287 -15.3096 0)
(-941.037 -21.1239 0)
(-915.902 -33.144 0)
(-836.218 -31.6608 0)
(-794.518 -28.54 0)
(-725.357 -29.4263 0)
(-689.562 -33.4376 0)
(-611.721 -34.0427 0)
(-531.851 -32.3673 0)
(-508.14 -28.306 0)
(-428.224 -24.6617 0)
(-410.172 -22.6405 0)
(-337.521 -20.4354 0)
(-315.893 -16.4003 0)
(-255.477 -15.568 0)
(-234.811 -15.1521 0)
(-205.244 -12.644 0)
(-139.742 -10.8392 0)
(-130.671 -7.67393 0)
(-92.1162 -6.53615 0)
(-84.3142 -6.09604 0)
(-58.1588 -5.66731 0)
(-44.5602 -3.31235 0)
(-43.0241 -1.37948 0)
(-27.0499 -4.94304 0)
(-12.074 -10.3905 0)
(15.7453 -11.401 0)
(41.6017 -10.4209 0)
(67.6284 -7.55387 0)
(84.0812 -3.03819 0)
(87.529 1.04774 0)
(87.2687 3.60084 0)
(80.7941 -2.84622 0)
(100.752 -9.46296 0)
(117.587 -13.5131 0)
(155.786 -11.0962 0)
(152.373 -2.29867 0)
(149.18 4.13991 0)
(114.587 9.99652 0)
(91.7004 11.2142 0)
(57.5006 6.99935 0)
(47.9669 4.18725 0)
(36.9664 3.74281 0)
(33.4029 5.47835 0)
(47.4585 9.72594 0)
(32.1477 9.97652 0)
(11.3882 4.8556 0)
(14.4617 -1.19397 0)
(21.9698 -4.19995 0)
(26.7788 -3.03341 0)
(30.219 -1.36393 0)
(30.1268 -3.78235 0)
(-44.5833 66.0245 0)
(-103.84 68.8743 0)
(-161.861 65.6213 0)
(-203.964 58.2912 0)
(-242.186 47.6401 0)
(-227.345 27.5315 0)
(-208.663 0.353729 0)
(-175.327 -5.68083 0)
(-201.136 22.5921 0)
(-214.51 81.8302 0)
(-370.867 115.856 0)
(-532.373 118.193 0)
(-632.023 172.824 0)
(-861.36 242.307 0)
(-1026.83 218.061 0)
(-1168.8 163.8 0)
(-1261.87 82.2686 0)
(-1220.1 -5.55466 0)
(-1357.5 -102.385 0)
(-1146.55 -178.27 0)
(-761.597 -139.705 0)
(-632.81 -82.0503 0)
(-543.69 -46.9262 0)
(-479.183 -112.353 0)
(-168.321 -209.996 0)
(-34.3231 -119.996 0)
(-292.986 110.953 0)
(-1221.06 370.585 0)
(-1704.75 485.94 0)
(-1522.5 255.492 0)
(-1383.04 -147.718 0)
(-1553.86 -312.18 0)
(-1408.7 -325.881 0)
(-960.359 -183.499 0)
(-1495.43 6.86453 0)
(-1067.41 -17.0412 0)
(-1484.12 -55.8325 0)
(-1565.04 82.8293 0)
(-1805.69 132.273 0)
(-1690.73 -38.6968 0)
(-1543.66 -106.152 0)
(-1082.99 -105.897 0)
(-865.582 -25.0689 0)
(-865.969 6.52467 0)
(-967.399 26.458 0)
(-991.957 15.4361 0)
(-1005.62 -28.6964 0)
(-936.303 -41.8092 0)
(-898.658 -17.9888 0)
(-943.345 -21.9552 0)
(-914.674 -43.2713 0)
(-878.261 -46.4329 0)
(-803.74 -41.8193 0)
(-771.407 -40.4951 0)
(-712.359 -46.2918 0)
(-684.6 -49.6602 0)
(-604.25 -47.1839 0)
(-572.235 -41.4984 0)
(-495.68 -36.8729 0)
(-473.761 -34.3304 0)
(-404.776 -32.1379 0)
(-379.096 -28.0353 0)
(-309.588 -26.8565 0)
(-282.165 -23.5162 0)
(-230.942 -24.0884 0)
(-181.973 -20.3456 0)
(-169.197 -14.1767 0)
(-133.826 -12.854 0)
(-108.672 -11.6204 0)
(-85.2498 -9.96648 0)
(-84.0488 -6.14882 0)
(-63.4381 -4.48854 0)
(-47.0884 -9.29568 0)
(-25.3601 -16.3845 0)
(-2.49514 -18.2714 0)
(31.2402 -17.2255 0)
(51.4195 -13.0394 0)
(76.0807 -6.59627 0)
(83.8663 -0.156501 0)
(88.1565 4.12183 0)
(86.8464 -4.58535 0)
(98.4557 -13.6981 0)
(114.77 -20.4787 0)
(142.333 -15.2453 0)
(135.261 0.466506 0)
(100.986 10.9949 0)
(70.9638 17.9959 0)
(25.9723 19.6275 0)
(6.11969 12.5036 0)
(-17.6483 7.19598 0)
(-22.9003 3.75283 0)
(-9.85879 2.77715 0)
(12.269 8.96997 0)
(24.0988 12.2798 0)
(8.05048 6.62833 0)
(13.8424 -2.24746 0)
(19.7284 -6.48794 0)
(31.4519 -3.93701 0)
(20.6728 -1.26483 0)
(32.0785 -4.79667 0)
(-30.5932 80.8661 0)
(-60.2724 79.3692 0)
(-68.2191 73.0706 0)
(-86.0947 62.0807 0)
(-63.0406 45.5404 0)
(-50.6568 20.7177 0)
(-5.72205 -4.42585 0)
(-16.3486 -6.92294 0)
(-5.8193 29.0996 0)
(-71.168 104.694 0)
(-191.84 145.488 0)
(-288.621 145.508 0)
(-432.581 207.197 0)
(-667.387 301.173 0)
(-770.013 276.38 0)
(-639.673 157.022 0)
(-394.915 48.7503 0)
(-419.921 24.7559 0)
(-726.84 -72.8163 0)
(-914.014 -218.794 0)
(-472.204 -199.142 0)
(-302.389 -113.539 0)
(-99.4496 -84.9313 0)
(48.3302 -137.92 0)
(203.046 -228.158 0)
(304.246 -87.201 0)
(111.796 223.659 0)
(-394.779 469.698 0)
(-673.274 503.369 0)
(-490.561 296.502 0)
(-830.566 -64.1272 0)
(-1138.71 -282.576 0)
(-1433.73 -268.727 0)
(-1404.02 -121.869 0)
(-1315.14 -14.7564 0)
(-1019.92 -5.34376 0)
(-1454.33 60.9223 0)
(-1811.47 128.692 0)
(-1715.56 64.2658 0)
(-862.452 -135.085 0)
(-1181.69 -222.172 0)
(-904.19 -167.123 0)
(-726.629 -41.2962 0)
(-809.766 16.0462 0)
(-884.531 37.927 0)
(-878.096 18.5331 0)
(-858.094 -31.6788 0)
(-876.842 -53.3572 0)
(-861.372 -21.1226 0)
(-850.182 -21.0746 0)
(-873.109 -52.8803 0)
(-801.018 -57.8029 0)
(-796.711 -55.2437 0)
(-729.617 -50.0999 0)
(-718.836 -56.128 0)
(-663.895 -60.4762 0)
(-636.815 -59.7681 0)
(-573.398 -55.005 0)
(-541.738 -48.6273 0)
(-484.442 -45.3443 0)
(-455.08 -43.9255 0)
(-395.625 -40.415 0)
(-360.368 -38.6867 0)
(-299.231 -35.0123 0)
(-270.28 -33.7541 0)
(-236.083 -29.2775 0)
(-187.65 -21.6664 0)
(-171.074 -19.8391 0)
(-133.184 -17.4259 0)
(-125.477 -13.5597 0)
(-112.404 -9.44702 0)
(-82.7084 -9.71994 0)
(-58.5856 -14.1908 0)
(-45.2771 -22.3259 0)
(-13.0438 -25.1597 0)
(9.6044 -24.2922 0)
(43.0971 -18.9433 0)
(58.2887 -10.9896 0)
(79.937 -2.34315 0)
(82.1504 3.95102 0)
(85.4613 -5.86018 0)
(96.8351 -16.4747 0)
(107.317 -23.7846 0)
(94.3262 -15.1012 0)
(82.1901 6.01751 0)
(48.242 20.7894 0)
(-13.4554 28.8344 0)
(-43.7689 27.3332 0)
(-67.9274 18.1419 0)
(-84.8875 10.2976 0)
(-87.7045 1.82946 0)
(-65.0329 -4.60776 0)
(-14.3648 2.48623 0)
(-3.31332 11.3058 0)
(5.86844 7.01933 0)
(5.3232 -3.37213 0)
(18.1389 -8.38073 0)
(17.1829 -4.57363 0)
(12.1539 0.261312 0)
(7.78813 -5.20484 0)
(-11.3474 87.9561 0)
(-15.1976 81.2477 0)
(-1.16187 71.362 0)
(34.9138 58.3317 0)
(50.2563 38.0031 0)
(97.3108 13.7856 0)
(120.681 -10.4918 0)
(150.573 -8.13459 0)
(149.126 29.0902 0)
(139.658 123.404 0)
(7.35096 176.052 0)
(-125.703 174.459 0)
(-280.838 244.037 0)
(-445.234 311.302 0)
(-262.223 261.901 0)
(-127.876 111.136 0)
(-0.929847 38.3468 0)
(115.786 26.9067 0)
(60.611 -9.00719 0)
(-487.154 -197.017 0)
(-532.456 -253.949 0)
(-382.579 -174.715 0)
(-318.661 -121.698 0)
(-58.8696 -200.857 0)
(47.9522 -291.266 0)
(241.543 -109.034 0)
(226.997 257.942 0)
(13.144 514.623 0)
(-68.9958 517.022 0)
(-148.07 385.882 0)
(-527.461 50.4581 0)
(-873.727 -217.101 0)
(-871.421 -299.163 0)
(-839.262 -139.131 0)
(-667.055 -36.8593 0)
(-573.991 5.34279 0)
(-758.65 96.1291 0)
(-829.206 132.186 0)
(-457.506 -29.9303 0)
(-214.869 -116.579 0)
(-739.215 -126.766 0)
(-730.663 -158.009 0)
(-665.198 -34.3194 0)
(-717.834 34.7519 0)
(-744.012 40.2604 0)
(-737.119 12.0915 0)
(-675.807 -29.6462 0)
(-746.736 -54.1349 0)
(-728.69 -19.9383 0)
(-698.236 -15.6571 0)
(-749.478 -58.1762 0)
(-710.173 -66.6567 0)
(-735.806 -61.6412 0)
(-685.271 -59.2025 0)
(-679.753 -63.8436 0)
(-631.925 -69.7911 0)
(-592.567 -69.6186 0)
(-579.302 -64.0645 0)
(-521.612 -58.437 0)
(-499.77 -55.8379 0)
(-446.034 -54.1825 0)
(-418.908 -52.1047 0)
(-360.109 -50.875 0)
(-327.589 -46.2699 0)
(-272.008 -41.9607 0)
(-255.458 -37.5875 0)
(-223.957 -30.8038 0)
(-176.627 -26.3405 0)
(-167.528 -23.0212 0)
(-147.906 -17.386 0)
(-127.223 -15.1284 0)
(-101.965 -16.2958 0)
(-77.0173 -19.6668 0)
(-54.1661 -28.3016 0)
(-34.6439 -31.9253 0)
(-0.0483026 -31.381 0)
(21.1508 -25.3035 0)
(50.9334 -15.9442 0)
(63.6207 -5.67948 0)
(77.8847 2.6237 0)
(80.6777 -6.90116 0)
(84.1092 -18.0952 0)
(85.8084 -21.673 0)
(53.1979 -10.3486 0)
(33.728 14.5221 0)
(-33.5914 34.495 0)
(-87.0655 40.9718 0)
(-132.976 34.4554 0)
(-142.98 22.5409 0)
(-152.117 10.9708 0)
(-140.026 -2.60149 0)
(-110.156 -14.6863 0)
(-50.2817 -6.56177 0)
(-18.965 7.29812 0)
(-11.3897 4.79655 0)
(1.57299 -5.18604 0)
(5.36352 -9.78998 0)
(7.68856 -3.62797 0)
(-10.377 1.88923 0)
(-3.19348 -5.19575 0)
(8.48562 87.3233 0)
(29.099 76.9091 0)
(59.7079 62.6095 0)
(110.648 47.6575 0)
(156.846 29.9493 0)
(183.653 3.22469 0)
(239.63 -16.7805 0)
(281.623 -17.7877 0)
(299.161 31.7744 0)
(224.382 142.721 0)
(154.35 204.628 0)
(28.6245 208.843 0)
(-155.518 282.875 0)
(-192.402 301.351 0)
(44.2555 186.268 0)
(263.24 59.861 0)
(326.635 -20.2417 0)
(390.941 23.6153 0)
(83.4688 82.7835 0)
(-273.658 -126.764 0)
(-633.536 -216.742 0)
(-953.301 -200.966 0)
(-800.232 -194.535 0)
(-868.451 -169.95 0)
(-694.208 -337.897 0)
(-164.696 -154.918 0)
(-140.727 357.525 0)
(-11.4996 541.441 0)
(144.215 514.15 0)
(186.289 423.441 0)
(293.379 64.5265 0)
(236.012 -211.131 0)
(-384.597 -247.903 0)
(-760.423 -145.184 0)
(-598.548 -64.0019 0)
(-540.463 12.8536 0)
(-514.468 85.59 0)
(-395.992 104.084 0)
(-105.926 -55.2362 0)
(-57.2469 -83.7916 0)
(-657.258 -99.6016 0)
(-873.248 -198.605 0)
(-659.92 -31.5874 0)
(-628.691 35.5549 0)
(-617.436 48.7908 0)
(-537.95 13.5611 0)
(-533.373 -24.646 0)
(-589.303 -51.634 0)
(-561.394 -22.4915 0)
(-548.219 -16.1256 0)
(-561.116 -48.4058 0)
(-610.718 -64.2648 0)
(-649.652 -58.8438 0)
(-650.292 -65.7721 0)
(-605.225 -72.6164 0)
(-598.176 -78.3633 0)
(-553.164 -77.7012 0)
(-548.378 -72.8445 0)
(-496.472 -69.2572 0)
(-460.84 -64.0201 0)
(-448.324 -63.1392 0)
(-397.919 -62.015 0)
(-371.088 -61.2919 0)
(-316.39 -58.0925 0)
(-288.352 -50.3918 0)
(-241.35 -45.8664 0)
(-205.239 -39.6866 0)
(-189.47 -32.0662 0)
(-175.919 -26.912 0)
(-157.863 -21.8557 0)
(-134.755 -21.0195 0)
(-103.531 -22.4679 0)
(-84.2259 -24.6758 0)
(-74.2197 -33.7518 0)
(-42.1482 -38.5753 0)
(-22.1629 -38.4282 0)
(12.0753 -31.7537 0)
(30.016 -21.6132 0)
(56.4722 -9.53969 0)
(66.3735 0.284238 0)
(75.3617 -7.33526 0)
(66.9731 -17.2692 0)
(51.9103 -16.6333 0)
(19.4564 -1.97782 0)
(-38.8471 27.1901 0)
(-99.5416 51.0709 0)
(-167.055 53.6904 0)
(-202.93 41.6839 0)
(-209.341 23.9706 0)
(-202.035 8.87884 0)
(-183.852 -8.78741 0)
(-137.804 -26.1713 0)
(-88.8351 -17.9836 0)
(-44.9322 0.498757 0)
(-20.9813 1.35879 0)
(-11.2876 -7.39608 0)
(-1.82592 -9.95208 0)
(-14.1293 -2.1008 0)
(-23.2013 4.0289 0)
(-26.5589 -4.55077 0)
(28.916 78.165 0)
(78.5119 68.1933 0)
(117.799 51.0453 0)
(180.73 36.9849 0)
(202.105 20.1269 0)
(245.616 -4.02356 0)
(270.119 -32.2366 0)
(318.88 -24.7031 0)
(342.662 35.6792 0)
(315.631 159.833 0)
(230.89 229.094 0)
(144.885 242.637 0)
(-2.10927 293.889 0)
(-4.16592 294.513 0)
(139.901 155.617 0)
(360.097 20.965 0)
(468.427 -4.4748 0)
(348.895 42.6011 0)
(172.988 113.628 0)
(-52.6301 -47.194 0)
(-322.127 -99.8363 0)
(-795.68 -151.545 0)
(-961.932 -166.565 0)
(-931.79 -158.685 0)
(-916.153 -384.606 0)
(-1063.43 -307.182 0)
(-841.632 45.6079 0)
(-383.885 345.799 0)
(-386.943 547.646 0)
(298.874 408.058 0)
(516.496 87.81 0)
(330.487 -79.6366 0)
(-188.469 -144.375 0)
(-599.834 -144.204 0)
(-820.227 -113.844 0)
(-572.556 -24.495 0)
(-667.794 47.548 0)
(-554.708 36.3297 0)
(-58.5364 -109.106 0)
(8.34808 -26.7791 0)
(-464.262 18.6363 0)
(-771.295 -129.481 0)
(-728.302 -62.5172 0)
(-687.235 6.98558 0)
(-540.306 28.6437 0)
(-444.368 11.0934 0)
(-379.213 -19.0965 0)
(-388.233 -45.584 0)
(-400.353 -24.3083 0)
(-334.766 -14.0982 0)
(-391.323 -35.5105 0)
(-475.978 -50.0235 0)
(-508.192 -55.9448 0)
(-518.374 -67.9496 0)
(-532.243 -76.3437 0)
(-508.131 -82.5686 0)
(-515.036 -81.9471 0)
(-483.365 -79.1509 0)
(-474.176 -75.516 0)
(-461.038 -70.7613 0)
(-412.246 -71.7521 0)
(-397.078 -71.2616 0)
(-343.217 -71.0528 0)
(-323.197 -67.4613 0)
(-272.33 -60.6882 0)
(-227.848 -55.4519 0)
(-213.201 -45.6868 0)
(-178.973 -35.4841 0)
(-173.38 -30.1184 0)
(-158.739 -27.6601 0)
(-125.266 -27.5484 0)
(-113.947 -28.1301 0)
(-86.2375 -28.4428 0)
(-82.4019 -38.1623 0)
(-60.9121 -44.9869 0)
(-29.6937 -45.1565 0)
(-10.6011 -38.3412 0)
(20.1224 -27.388 0)
(37.8677 -14.4507 0)
(57.972 -1.83796 0)
(66.0834 -7.17197 0)
(49.5673 -12.8804 0)
(26.0701 -9.16195 0)
(-21.8351 9.90678 0)
(-88.5705 44.1696 0)
(-167.16 67.9342 0)
(-226.094 66.8116 0)
(-260.377 46.2973 0)
(-256.194 21.0378 0)
(-230.216 3.6444 0)
(-204.196 -17.2577 0)
(-161.61 -37.7105 0)
(-106.18 -30.5938 0)
(-59.7252 -8.05633 0)
(-36.8522 -3.65776 0)
(-18.2167 -9.77223 0)
(-18.1667 -9.05087 0)
(-30.427 -0.0331677 0)
(-44.2756 5.6164 0)
(-32.5498 -4.07161 0)
(38.7709 61.9074 0)
(114 54.0285 0)
(170.238 39.2884 0)
(206.061 25.9211 0)
(248.613 13.1363 0)
(268.132 -15.2888 0)
(333.627 -40.4103 0)
(371.334 -34.4411 0)
(364.894 40.6458 0)
(305.125 174.297 0)
(284.519 262.405 0)
(200.371 261.812 0)
(142.404 300.879 0)
(80.7051 281.84 0)
(201.755 103.774 0)
(401.831 -23.5844 0)
(364.168 10.5033 0)
(139.333 135.583 0)
(330.328 155.97 0)
(17.141 23.7666 0)
(-481.819 23.4604 0)
(-652.049 -90.0568 0)
(-819.254 -176.252 0)
(-905.183 -151.17 0)
(-1024.53 -301.636 0)
(-1596.45 -223.191 0)
(-976.678 144.837 0)
(-660.798 409.063 0)
(-462.139 438.373 0)
(161.532 288.994 0)
(742.558 57.4965 0)
(569.045 -92.7686 0)
(295.618 -10.2245 0)
(-1.25298 4.19456 0)
(-426.154 -28.9115 0)
(-714.972 -31.6585 0)
(-574.809 27.8496 0)
(-806.201 2.23947 0)
(-86.9806 -225.026 0)
(-73.0742 1.62523 0)
(-342.248 89.0393 0)
(-673.605 -91.6791 0)
(-565.398 -94.7519 0)
(-449.75 -28.9607 0)
(-459.028 -24.4678 0)
(-309.769 -26.1266 0)
(-261.03 -32.2744 0)
(-220.232 -58.0512 0)
(-165.02 -32.8355 0)
(-141.533 -13.5667 0)
(-217.598 -17.3449 0)
(-314.642 -32.9422 0)
(-348.489 -41.5178 0)
(-421.514 -61.9687 0)
(-423.603 -77.1498 0)
(-446.889 -81.5634 0)
(-435.717 -84.5944 0)
(-443.814 -82.6604 0)
(-416.176 -78.488 0)
(-424.716 -77.4013 0)
(-379.731 -78.3819 0)
(-374.195 -79.2973 0)
(-323.113 -79.7301 0)
(-313.034 -76.649 0)
(-260.572 -70.9743 0)
(-238.265 -63.2202 0)
(-200.962 -52.7279 0)
(-185.178 -40.5837 0)
(-155.888 -33.5608 0)
(-152.662 -32.77 0)
(-121.21 -32.947 0)
(-115.989 -32.7772 0)
(-89.5382 -32.1897 0)
(-86.8902 -41.836 0)
(-63.5623 -50.401 0)
(-50.669 -51.148 0)
(-20.5508 -44.4548 0)
(-3.743 -33.3916 0)
(25.027 -19.4207 0)
(43.3692 -5.62795 0)
(52.2603 -4.94286 0)
(33.8459 -6.66301 0)
(1.17378 0.252091 0)
(-54.3711 25.5233 0)
(-136.774 63.9063 0)
(-219.265 86.016 0)
(-277.315 75.9259 0)
(-294.937 47.3004 0)
(-279.649 17.2851 0)
(-246.821 -6.10817 0)
(-204 -27.7611 0)
(-162.105 -48.5082 0)
(-127.334 -42.7582 0)
(-81.0665 -16.8648 0)
(-45.3801 -9.70901 0)
(-30.5307 -11.907 0)
(-33.2056 -6.78764 0)
(-49.2017 1.81892 0)
(-53.0147 6.13815 0)
(-43.9845 -3.65924 0)
(46.1195 41.6755 0)
(126.176 36.438 0)
(197.133 27.5904 0)
(219.125 17.6795 0)
(254.002 4.38072 0)
(301.87 -24.0046 0)
(325.537 -50.0958 0)
(350.385 -36.7905 0)
(305.877 43.8151 0)
(316.947 165.829 0)
(311.488 277.673 0)
(280.903 271.967 0)
(144.453 326.028 0)
(91.8665 289.678 0)
(238.7 64.694 0)
(514.386 -38.7444 0)
(335.904 59.5966 0)
(-154.352 167.788 0)
(297.215 137.606 0)
(-2.7087 132.639 0)
(-159.68 108.839 0)
(-319.207 -27.8584 0)
(-834.693 -113.208 0)
(-623.855 -101.635 0)
(-320.595 -203.88 0)
(-1228.42 -222.751 0)
(-1358.44 15.1027 0)
(-577.736 250.279 0)
(-205.754 282.581 0)
(45.9147 135.351 0)
(943.311 -38.4975 0)
(996.599 -118.98 0)
(862.176 66.6608 0)
(651.844 94.6803 0)
(290.971 70.3385 0)
(-237.113 33.2438 0)
(-419.41 22.6484 0)
(-800.408 -1.74533 0)
(-129.682 -321.303 0)
(-248.397 7.44648 0)
(-221.335 130.74 0)
(-315.74 -55.8492 0)
(-296.353 -107.457 0)
(-287.476 -35.0162 0)
(-291.761 -28.3153 0)
(-258.391 -45.3318 0)
(-151.246 -50.6691 0)
(-59.9986 -73.7948 0)
(-52.9461 -40.1042 0)
(-62.8684 -9.04899 0)
(-97.0406 1.41852 0)
(-143.23 -14.9196 0)
(-231.746 -26.3356 0)
(-287.494 -49.4715 0)
(-348.98 -71.1304 0)
(-358.805 -77.7452 0)
(-386.847 -83.6365 0)
(-372.257 -84.0893 0)
(-381.042 -79.0455 0)
(-360.513 -79.713 0)
(-359.16 -84.8617 0)
(-326.181 -85.5704 0)
(-314.932 -85.7654 0)
(-279.273 -83.9416 0)
(-261.752 -78.9838 0)
(-220.526 -70.5312 0)
(-209.092 -57.8892 0)
(-174.705 -46.9975 0)
(-144.95 -38.4443 0)
(-133.227 -35.5569 0)
(-126.788 -36.9499 0)
(-106.21 -35.7886 0)
(-98.7329 -35.3851 0)
(-85.42 -44.7969 0)
(-79.4641 -54.4652 0)
(-58.258 -56.0667 0)
(-45.6028 -50.0255 0)
(-18.4852 -39.268 0)
(1.07636 -25.6327 0)
(27.5481 -8.9712 0)
(32.5663 -3.66601 0)
(13.6654 0.0432469 0)
(-25.203 11.8819 0)
(-84.6163 43.245 0)
(-177.261 86.0417 0)
(-265.928 104.026 0)
(-315.147 85.3061 0)
(-316.638 47.1134 0)
(-285.343 10.905 0)
(-244.45 -15.2451 0)
(-206.37 -38.246 0)
(-164.162 -58.5058 0)
(-121.715 -52.6355 0)
(-90.4402 -25.8448 0)
(-56.3074 -16.1296 0)
(-43.917 -13.0231 0)
(-53.2636 -4.47412 0)
(-60.1163 2.94069 0)
(-70.4194 5.54461 0)
(-47.6608 -4.09586 0)
(51.9216 18.6585 0)
(134.885 17.1425 0)
(211.352 15.88 0)
(240.123 10.9408 0)
(257.327 -4.96583 0)
(296.928 -31.5093 0)
(328.998 -53.838 0)
(297.388 -33.7355 0)
(266.103 50.2774 0)
(272.202 162.512 0)
(317.273 289.883 0)
(321.598 288.578 0)
(82.8213 338.516 0)
(165.417 273.338 0)
(308.126 15.1598 0)
(549.318 -41.1073 0)
(64.9517 151.772 0)
(-403.304 161.424 0)
(243.895 79.4792 0)
(60.5258 144.787 0)
(-71.0036 165.866 0)
(-458.585 -4.88801 0)
(-770.624 -176.375 0)
(-132.655 -192.478 0)
(-124.726 -134.006 0)
(-670.239 -124.569 0)
(-993.105 -88.3544 0)
(-421.652 124.912 0)
(-422.984 231.938 0)
(177.381 8.77809 0)
(1076.9 -171.931 0)
(1133.54 -155.77 0)
(1284.24 20.7484 0)
(1097.55 169.565 0)
(810.598 170.583 0)
(458.204 135.887 0)
(11.3985 114.064 0)
(-349.53 26.5929 0)
(-282.66 -311.775 0)
(-559.287 -18.0988 0)
(-49.4802 94.9071 0)
(-72.0827 -41.5583 0)
(-61.7728 -95.9715 0)
(-125.772 -30.0941 0)
(-121.276 -22.0968 0)
(-132.122 -57.1122 0)
(-63.7637 -68.8839 0)
(-9.47471 -84.5049 0)
(19.8484 -43.6414 0)
(-5.29971 -2.88988 0)
(16.1805 6.34241 0)
(-51.3515 0.853698 0)
(-125.908 -5.2574 0)
(-183.982 -32.702 0)
(-271.99 -59.1516 0)
(-315.749 -71.6985 0)
(-314.932 -82.1001 0)
(-332.932 -85.1059 0)
(-317.431 -80.0607 0)
(-328.618 -82.4478 0)
(-303.912 -87.8826 0)
(-308.437 -90.1838 0)
(-274.146 -91.4713 0)
(-270.411 -90.1506 0)
(-234.04 -85.2467 0)
(-222.229 -75.7984 0)
(-210.818 -64.3844 0)
(-169.424 -55.0049 0)
(-155.137 -44.0125 0)
(-139.346 -39.1076 0)
(-113.312 -40.2862 0)
(-110.224 -38.9312 0)
(-95.7911 -37.496 0)
(-96.1311 -47.0355 0)
(-83.9997 -57.2842 0)
(-82.1227 -59.8489 0)
(-60.5801 -54.6167 0)
(-48.3638 -44.8381 0)
(-19.2279 -31.5356 0)
(2.97988 -12.2903 0)
(8.78314 -1.43557 0)
(-12.5938 7.07537 0)
(-49.191 25.0645 0)
(-121.594 62.5289 0)
(-217.903 109.313 0)
(-302.323 120.792 0)
(-333.431 88.9714 0)
(-319.891 42.4059 0)
(-285.901 1.0178 0)
(-238.758 -26.7053 0)
(-196.043 -48.9618 0)
(-153.515 -67.5972 0)
(-121.064 -61.6941 0)
(-89.934 -32.8336 0)
(-62.5133 -21.4976 0)
(-59.0659 -13.0218 0)
(-67.0092 -1.93853 0)
(-78.9482 3.64013 0)
(-78.4133 3.46941 0)
(-52.7009 -4.49736 0)
(50.425 -4.68357 0)
(143.034 -2.42256 0)
(205.179 3.12606 0)
(248.937 4.3839 0)
(262.927 -11.9093 0)
(303.724 -38.2992 0)
(284.568 -48.9617 0)
(247.693 -23.4435 0)
(184.246 53.3566 0)
(226.261 141.434 0)
(261.277 287.507 0)
(374.466 316.914 0)
(-44.0882 353.106 0)
(262.701 217.902 0)
(369.123 -17.9014 0)
(494.913 14.2427 0)
(-226.112 232.285 0)
(-240.46 160.132 0)
(183.652 15.6672 0)
(-77.111 175.864 0)
(-197.418 246.623 0)
(-306.86 51.0412 0)
(-520.244 -155.435 0)
(-165.839 -232.62 0)
(-158.377 -129.165 0)
(-302.974 -48.9201 0)
(-856.623 -75.4826 0)
(-331.351 18.67 0)
(-72.909 135.303 0)
(555.587 -128.945 0)
(1241.96 -283.481 0)
(1140.25 -166.115 0)
(1100.92 77.171 0)
(1224.07 228.376 0)
(1190.1 217.431 0)
(1060.32 251.039 0)
(497.785 213.003 0)
(208.698 77.0298 0)
(-109.896 -193.649 0)
(-324.027 -68.1201 0)
(-6.00888 28.9582 0)
(133.779 -38.3213 0)
(88.734 -83.9359 0)
(36.1973 -28.8732 0)
(27.0954 -17.7284 0)
(7.09643 -56.335 0)
(-28.8032 -80.6459 0)
(-26.0007 -86.4783 0)
(-32.7158 -46.7668 0)
(0.117631 -2.22522 0)
(8.58059 10.2395 0)
(-10.5073 12.9903 0)
(-30.4186 9.32209 0)
(-117.179 -12.91 0)
(-209.681 -45.2832 0)
(-238.094 -63.597 0)
(-274.553 -80.2021 0)
(-264.219 -84.2125 0)
(-279.979 -80.081 0)
(-266.006 -83.111 0)
(-275.728 -88.7201 0)
(-281.154 -93.4234 0)
(-246.044 -95.529 0)
(-248.04 -94.4349 0)
(-229.541 -90.103 0)
(-217.495 -78.9006 0)
(-189.142 -69.8836 0)
(-175.544 -60.8626 0)
(-158.884 -48.4248 0)
(-127.074 -44.5038 0)
(-103.205 -44.1488 0)
(-107.275 -39.8798 0)
(-101.613 -38.4622 0)
(-95.495 -48.1346 0)
(-99.3884 -58.5484 0)
(-95.1077 -61.8338 0)
(-93.0828 -58.2516 0)
(-71.9289 -50.0123 0)
(-52.6138 -37.2976 0)
(-29.0453 -15.3044 0)
(-23.1116 0.392508 0)
(-35.2396 14.981 0)
(-85.0336 38.9946 0)
(-156.379 83.0924 0)
(-255.775 132.751 0)
(-327.459 133.737 0)
(-336.357 91.4012 0)
(-319.586 35.9384 0)
(-272.212 -10.9148 0)
(-224.009 -38.5054 0)
(-189.702 -60.0095 0)
(-140.356 -76.4181 0)
(-113.333 -69.3545 0)
(-93.8855 -38.2273 0)
(-73.9208 -25.068 0)
(-71.0304 -11.8862 0)
(-88.6415 1.28354 0)
(-90.4325 2.99574 0)
(-91.3679 -0.121388 0)
(-55.4818 -6.09249 0)
(46.094 -29.4243 0)
(140.845 -21.32 0)
(206.813 -9.75071 0)
(243.751 -4.4594 0)
(280.231 -17.544 0)
(280.1 -37.6308 0)
(257.751 -39.2171 0)
(189.301 -11.0552 0)
(107.395 59.8617 0)
(93.4985 130.588 0)
(106.703 285.212 0)
(464.028 333.837 0)
(-153.785 361.373 0)
(248.725 168.605 0)
(396.876 -40.5242 0)
(408.085 110.256 0)
(-434.015 299.013 0)
(-203.615 134.344 0)
(-82.621 -5.88124 0)
(-466.672 212.534 0)
(-269.197 261.508 0)
(-133.704 83.8467 0)
(-267.284 -129.318 0)
(-363.057 -213.08 0)
(-566.104 -87.8747 0)
(-339.629 47.7347 0)
(-928.515 -54.6128 0)
(-351.743 -100.637 0)
(161.977 1.15787 0)
(826.27 -235.381 0)
(1265.57 -326.259 0)
(1127.22 -160.824 0)
(787.395 105.682 0)
(1146.06 183.047 0)
(1171.62 205.979 0)
(1082.75 303.124 0)
(785.528 290.409 0)
(559.739 166.286 0)
(209.18 -89.9863 0)
(-379.301 -127.809 0)
(-101.547 -25.4569 0)
(283.841 -64.4546 0)
(205.661 -62.535 0)
(170.339 -26.9335 0)
(153.44 -14.9392 0)
(105.591 -47.9991 0)
(85.8177 -68.4609 0)
(-4.39862 -76.8112 0)
(-42.3964 -43.6816 0)
(-28.8341 -7.99366 0)
(1.01706 7.54673 0)
(-2.70937 15.1347 0)
(-7.52303 20.2242 0)
(-27.1531 9.03444 0)
(-110.745 -25.5613 0)
(-188.09 -53.4495 0)
(-202.159 -75.6217 0)
(-225.257 -84.0218 0)
(-215.52 -79.7288 0)
(-211.003 -82.5837 0)
(-237.242 -87.5486 0)
(-223.86 -94.56 0)
(-232.753 -98.5138 0)
(-205.768 -97.7008 0)
(-207.642 -92.2698 0)
(-186.009 -83.5932 0)
(-182.965 -73.9359 0)
(-172.443 -64.8994 0)
(-143.601 -55.478 0)
(-113.978 -50.2127 0)
(-108.191 -46.5817 0)
(-96.2591 -40.6324 0)
(-90.6839 -38.4715 0)
(-104.085 -47.2954 0)
(-104.726 -57.4378 0)
(-125.231 -61.603 0)
(-120.55 -60.2524 0)
(-114.453 -55.1964 0)
(-81.5358 -42.7053 0)
(-65.8931 -19.3463 0)
(-49.8173 1.07839 0)
(-74.9706 22.4357 0)
(-111.226 53.635 0)
(-198.656 103.544 0)
(-296.457 153.94 0)
(-347.679 138.18 0)
(-333.622 83.8904 0)
(-300.008 24.3388 0)
(-256.436 -22.6779 0)
(-211.186 -48.6874 0)
(-178.234 -71.0099 0)
(-131.76 -85.3619 0)
(-108.259 -75.031 0)
(-99.0354 -41.5105 0)
(-81.0986 -27.5516 0)
(-87.708 -9.52608 0)
(-104.949 4.1533 0)
(-104.423 1.08048 0)
(-96.8739 -5.05615 0)
(-60.3819 -7.36381 0)
(40.0725 -52.4685 0)
(135.475 -40.4163 0)
(197.904 -22.9981 0)
(244.422 -14.0155 0)
(264.384 -20.795 0)
(264.751 -32.476 0)
(216.513 -23.7395 0)
(149.49 9.49418 0)
(27.7687 77.0918 0)
(56.3038 109.529 0)
(-10.1472 239.203 0)
(400.539 378.27 0)
(-64.6191 383.866 0)
(267.079 122.311 0)
(400.541 -47.3056 0)
(238.905 224.958 0)
(-210.495 344.33 0)
(-329.266 160.107 0)
(-486.503 52.6877 0)
(-863.686 178.936 0)
(-426.36 211.295 0)
(-108.104 37.5157 0)
(-410.057 -115.142 0)
(-445.752 -215.252 0)
(-431.581 -73.6137 0)
(-486.473 95.6066 0)
(-227.403 -124.982 0)
(-162.651 -207.886 0)
(355.837 -147.269 0)
(1046.77 -362.751 0)
(1171.83 -348.576 0)
(992.625 -102.57 0)
(462.472 121.308 0)
(1001.31 128.449 0)
(914.059 199.848 0)
(988.534 339.154 0)
(935.376 338.595 0)
(820.013 231.145 0)
(438.54 38.1983 0)
(-160.628 -101.057 0)
(214.915 -93.629 0)
(365.886 -104.575 0)
(319.378 -51.0612 0)
(278.888 -17.1103 0)
(223.54 -2.17006 0)
(171.68 -31.3539 0)
(83.765 -60.5076 0)
(25.8102 -60.02 0)
(-61.4762 -38.2512 0)
(-18.1811 -14.8794 0)
(-15.183 3.75758 0)
(-11.2355 12.9372 0)
(20.0971 21.1596 0)
(0.195727 17.2915 0)
(-66.2193 -8.80576 0)
(-123.362 -40.8327 0)
(-163.063 -71.4736 0)
(-161.624 -83.5382 0)
(-158.87 -79.1275 0)
(-184.008 -79.3778 0)
(-181.877 -85.8577 0)
(-200.148 -93.4325 0)
(-209.124 -100.316 0)
(-178.613 -102.097 0)
(-168.332 -94.6692 0)
(-171.717 -84.0285 0)
(-172.821 -75.5194 0)
(-150.59 -69.5766 0)
(-141.619 -61.6103 0)
(-108.521 -55.3095 0)
(-96.9274 -49.1066 0)
(-98.4414 -41.9582 0)
(-88.3824 -37.848 0)
(-102.899 -44.3256 0)
(-118.967 -53.8803 0)
(-149.657 -57.5479 0)
(-172.404 -61.0106 0)