/*--------------------------------*- C++ -*----------------------------------*\
| =========                 |                                                 |
| \\      /  F ield         | foam-extend: Open Source CFD                    |
|  \\    /   O peration     | Version:     5.0                                |
|   \\  /    A nd           | Web:         http://www.foam-extend.org         |
|    \\/     M anipulation  |                                                 |
\*---------------------------------------------------------------------------*/
FoamFile
{
    version     2.0;
    format      ascii;
    class       volVectorField;
    location    "1";
    object      fL;
}
// * * * * * * * * * * * * * * * * * * * * * * * * * * * * * * * * * * * * * //

dimensions      [0 1 -2 0 0 0 0];

internalField   nonuniform List<vector> 
4000
(
(-174.356 0 0)
(-213.493 0 0)
(-174.759 0 -0)
(-195.048 0 0)
(-182.593 0 -0)
(-190.579 0 0)
(-185.584 0 -0)
(-188.764 0 0)
(-186.745 0 -0)
(-188.027 0 0)
(-187.212 0 -0)
(-187.73 0 0)
(-187.401 0 -0)
(-187.61 0 0)
(-187.477 0 -0)
(-187.562 0 0)
(-187.508 0 -0)
(-187.542 0 0)
(-187.52 0 -0)
(-187.534 0 0)
(-187.525 0 -0)
(-187.531 0 0)
(-187.527 0 -0)
(-187.53 0 0)
(-187.528 0 -0)
(-187.529 0 0)
(-187.529 0 -0)
(-187.529 0 0)
(-187.529 0 -0)
(-187.529 0 0)
(-187.529 0 -0)
(-187.529 0 0)
(-187.529 0 -0)
(-187.529 0 0)
(-187.529 0 -0)
(-187.529 0 0)
(-187.529 0 -0)
(-187.529 0 0)
(-187.529 0 -0)
(-187.529 0 0)
(-187.529 0 -0)
(-187.529 0 0)
(-187.529 0 -0)
(-187.529 0 0)
(-187.529 0 -0)
(-187.529 0 0)
(-187.529 0 -0)
(-187.529 0 0)
(-187.529 0 -0)
(-187.529 0 0)
(-187.529 0 -0)
(-187.529 0 0)
(-187.529 0 -0)
(-187.529 0 0)
(-187.529 0 -0)
(-187.529 0 0)
(-187.529 0 -0)
(-187.529 0 0)
(-187.529 0 -0)
(-187.529 0 0)
(-187.529 0 -0)
(-187.529 0 0)
(-187.529 0 -0)
(-187.529 0 0)
(-187.529 0 -0)
(-187.529 0 0)
(-187.529 0 -0)
(-187.529 0 0)
(-187.529 0 0)
(-187.529 0 -0)
(-187.529 0 -0)
(-187.529 0 0)
(-187.529 0 -0)
(-187.529 0 0)
(-187.529 0 -0)
(-187.529 0 -0)
(-187.529 0 -0)
(-187.529 0 0)
(-187.529 0 0)
(-187.529 0 0)
(-187.529 0 -0)
(-187.529 0 -0)
(-187.529 0 -0)
(-187.529 0 0)
(-187.529 0 0)
(-187.529 0 0)
(-187.529 0 0)
(-187.529 0 0)
(-187.529 0 0)
(-187.529 0 -0)
(-187.529 0 -0)
(-187.529 0 -0)
(-187.529 0 -0)
(-187.529 0 -0)
(-187.529 0 -0)
(-187.529 0 -0)
(-187.529 0 -0)
(-187.529 0 -0)
(-187.529 0 -0)
(-187.529 0 0)
(-296.273 0 0)
(-369.819 0 0)
(-308.948 0 -0)
(-342.697 0 0)
(-321.805 0 -0)
(-335.189 0 0)
(-326.818 0 -0)
(-332.15 0 0)
(-328.766 0 -0)
(-330.915 0 0)
(-329.548 0 -0)
(-330.417 0 0)
(-329.865 0 -0)
(-330.216 0 0)
(-329.992 0 -0)
(-330.134 0 0)
(-330.044 0 -0)
(-330.101 0 0)
(-330.065 0 -0)
(-330.088 0 0)
(-330.073 0 -0)
(-330.083 0 0)
(-330.077 0 -0)
(-330.081 0 0)
(-330.078 0 -0)
(-330.08 0 0)
(-330.079 0 -0)
(-330.079 0 0)
(-330.079 0 -0)
(-330.079 0 0)
(-330.079 0 -0)
(-330.079 0 0)
(-330.079 0 -0)
(-330.079 0 0)
(-330.079 0 -0)
(-330.079 0 0)
(-330.079 0 -0)
(-330.079 0 0)
(-330.079 0 -0)
(-330.079 0 0)
(-330.079 0 -0)
(-330.079 0 0)
(-330.079 0 -0)
(-330.079 0 0)
(-330.079 0 -0)
(-330.079 0 0)
(-330.079 0 -0)
(-330.079 0 0)
(-330.079 0 -0)
(-330.079 0 0)
(-330.079 0 -0)
(-330.079 0 0)
(-330.079 0 -0)
(-330.079 0 0)
(-330.079 0 -0)
(-330.079 0 0)
(-330.079 0 -0)
(-330.079 0 0)
(-330.079 0 -0)
(-330.079 0 0)
(-330.079 0 -0)
(-330.079 0 0)
(-330.079 0 -0)
(-330.079 0 0)
(-330.079 0 -0)
(-330.079 0 0)
(-330.079 0 -0)
(-330.079 0 0)
(-330.079 0 0)
(-330.079 0 -0)
(-330.079 0 -0)
(-330.079 0 0)
(-330.079 0 -0)
(-330.079 0 0)
(-330.079 0 0)
(-330.079 0 0)
(-330.079 0 0)
(-330.079 0 0)
(-330.079 0 0)
(-330.079 0 0)
(-330.079 0 0)
(-330.079 0 0)
(-330.079 0 0)
(-330.079 0 0)
(-330.079 0 0)
(-330.079 0 0)
(-330.079 0 0)
(-330.079 0 0)
(-330.079 0 0)
(-330.079 0 0)
(-330.079 0 0)
(-330.079 0 0)
(-330.079 0 0)
(-330.079 0 0)
(-330.079 0 0)
(-330.079 0 0)
(-330.079 0 0)
(-330.079 0 0)
(-330.079 0 0)
(-330.079 0 0)
(-339.869 0 0)
(-428.186 0 0)
(-360.993 0 0)
(-399.094 0 0)
(-375.354 0 -0)
(-390.554 0 0)
(-381.04 0 -0)
(-387.1 0 0)
(-383.254 0 -0)
(-385.697 0 0)
(-384.143 0 -0)
(-385.13 0 0)
(-384.503 0 -0)
(-384.902 0 0)
(-384.648 0 -0)
(-384.809 0 0)
(-384.707 0 -0)
(-384.772 0 0)
(-384.731 0 -0)
(-384.757 0 0)
(-384.74 0 -0)
(-384.751 0 0)
(-384.744 0 -0)
(-384.748 0 0)
(-384.746 0 -0)
(-384.747 0 0)
(-384.746 0 -0)
(-384.747 0 0)
(-384.747 0 -0)
(-384.747 0 0)
(-384.747 0 -0)
(-384.747 0 0)
(-384.747 0 -0)
(-384.747 0 0)
(-384.747 0 -0)
(-384.747 0 0)
(-384.747 0 -0)
(-384.747 0 0)
(-384.747 0 -0)
(-384.747 0 0)
(-384.747 0 -0)
(-384.747 0 0)
(-384.747 0 -0)
(-384.747 0 0)
(-384.747 0 -0)
(-384.747 0 0)
(-384.747 0 -0)
(-384.747 0 0)
(-384.747 0 -0)
(-384.747 0 0)
(-384.747 0 -0)
(-384.747 0 0)
(-384.747 0 -0)
(-384.747 0 0)
(-384.747 0 -0)
(-384.747 0 0)
(-384.747 0 -0)
(-384.747 0 0)
(-384.747 0 -0)
(-384.747 0 0)
(-384.747 0 -0)
(-384.747 0 0)
(-384.747 0 -0)
(-384.747 0 0)
(-384.747 0 0)
(-384.747 0 0)
(-384.747 0 -0)
(-384.747 0 0)
(-384.747 0 0)
(-384.747 0 0)
(-384.747 0 0)
(-384.747 0 -0)
(-384.747 0 -0)
(-384.747 0 0)
(-384.747 0 0)
(-384.747 0 0)
(-384.747 0 0)
(-384.747 0 0)
(-384.747 0 0)
(-384.747 0 0)
(-384.747 0 0)
(-384.747 0 0)
(-384.747 0 0)
(-384.747 0 0)
(-384.747 0 0)
(-384.747 0 0)
(-384.747 0 0)
(-384.747 0 0)
(-384.747 0 0)
(-384.747 0 0)
(-384.747 0 0)
(-384.747 0 0)
(-384.747 0 0)
(-384.747 0 0)
(-384.747 0 0)
(-384.747 0 0)
(-384.747 0 0)
(-384.747 0 0)
(-384.747 0 0)
(-384.747 0 0)
(-354.419 0 0)
(-448.958 0 0)
(-381.222 0 0)
(-420.665 0 0)
(-395.949 0 -0)
(-411.761 0 0)
(-401.85 0 -0)
(-408.163 0 0)
(-404.156 0 -0)
(-406.701 0 0)
(-405.083 0 -0)
(-406.111 0 0)
(-405.458 0 -0)
(-405.873 0 0)
(-405.609 0 -0)
(-405.777 0 0)
(-405.67 0 -0)
(-405.738 0 0)
(-405.695 0 -0)
(-405.722 0 0)
(-405.705 0 -0)
(-405.716 0 0)
(-405.709 0 -0)
(-405.713 0 0)
(-405.711 0 -0)
(-405.712 0 0)
(-405.711 0 -0)
(-405.712 0 0)
(-405.711 0 -0)
(-405.712 0 0)
(-405.712 0 -0)
(-405.712 0 0)
(-405.712 0 -0)
(-405.712 0 0)
(-405.712 0 -0)
(-405.712 0 0)
(-405.712 0 -0)
(-405.712 0 0)
(-405.712 0 -0)
(-405.712 0 0)
(-405.712 0 -0)
(-405.712 0 0)
(-405.712 0 -0)
(-405.712 0 0)
(-405.712 0 -0)
(-405.712 0 0)
(-405.712 0 -0)
(-405.712 0 0)
(-405.712 0 -0)
(-405.712 0 0)
(-405.712 0 -0)
(-405.712 0 0)
(-405.712 0 -0)
(-405.712 0 0)
(-405.712 0 -0)
(-405.712 0 0)
(-405.712 0 -0)
(-405.712 0 0)
(-405.712 0 -0)
(-405.712 0 0)
(-405.712 0 -0)
(-405.712 0 0)
(-405.712 0 -0)
(-405.712 0 0)
(-405.712 0 -0)
(-405.712 0 0)
(-405.712 0 -0)
(-405.712 0 0)
(-405.712 0 0)
(-405.712 0 0)
(-405.712 0 0)
(-405.712 0 -0)
(-405.712 0 -0)
(-405.712 0 0)
(-405.712 0 0)
(-405.712 0 0)
(-405.712 0 0)
(-405.712 0 0)
(-405.712 0 0)
(-405.712 0 0)
(-405.712 0 0)
(-405.712 0 0)
(-405.712 0 0)
(-405.712 0 0)
(-405.712 0 0)
(-405.712 0 0)
(-405.712 0 0)
(-405.712 0 0)
(-405.712 0 0)
(-405.712 0 0)
(-405.712 0 0)
(-405.712 0 0)
(-405.712 0 0)
(-405.712 0 0)
(-405.712 0 0)
(-405.712 0 0)
(-405.712 0 0)
(-405.712 0 0)
(-405.712 0 0)
(-405.712 0 0)
(-358.836 0 0)
(-456.031 0 0)
(-389.16 0 0)
(-428.932 0 0)
(-403.878 0 -0)
(-419.889 0 0)
(-409.835 0 -0)
(-416.239 0 0)
(-412.174 0 -0)
(-414.755 0 0)
(-413.114 0 -0)
(-414.157 0 0)
(-413.494 0 -0)
(-413.915 0 0)
(-413.647 0 -0)
(-413.818 0 0)
(-413.71 0 -0)
(-413.778 0 0)
(-413.735 0 -0)
(-413.762 0 0)
(-413.745 0 -0)
(-413.756 0 0)
(-413.749 0 -0)
(-413.753 0 0)
(-413.75 0 -0)
(-413.752 0 0)
(-413.751 0 -0)
(-413.752 0 0)
(-413.751 0 -0)
(-413.752 0 0)
(-413.752 0 -0)
(-413.752 0 0)
(-413.752 0 -0)
(-413.752 0 0)
(-413.752 0 -0)
(-413.752 0 0)
(-413.752 0 -0)
(-413.752 0 0)
(-413.752 0 -0)
(-413.752 0 0)
(-413.752 0 -0)
(-413.752 0 0)
(-413.752 0 -0)
(-413.752 0 0)
(-413.752 0 -0)
(-413.752 0 0)
(-413.752 0 -0)
(-413.752 0 0)
(-413.752 0 -0)
(-413.752 0 0)
(-413.752 0 -0)
(-413.752 0 0)
(-413.752 0 -0)
(-413.752 0 0)
(-413.752 0 -0)
(-413.752 0 0)
(-413.752 0 -0)
(-413.752 0 0)
(-413.752 0 -0)
(-413.752 0 0)
(-413.752 0 -0)
(-413.752 0 0)
(-413.752 0 -0)
(-413.752 0 0)
(-413.752 0 0)
(-413.752 0 0)
(-413.752 0 -0)
(-413.752 0 0)
(-413.752 0 0)
(-413.752 0 0)
(-413.752 0 0)
(-413.752 0 -0)
(-413.752 0 -0)
(-413.752 0 0)
(-413.752 0 0)
(-413.752 0 0)
(-413.752 0 0)
(-413.752 0 0)
(-413.752 0 0)
(-413.752 0 0)
(-413.752 0 0)
(-413.752 0 0)
(-413.752 0 0)
(-413.752 0 0)
(-413.752 0 0)
(-413.752 0 0)
(-413.752 0 0)
(-413.752 0 0)
(-413.752 0 0)
(-413.752 0 0)
(-413.752 0 0)
(-413.752 0 0)
(-413.752 0 0)
(-413.752 0 0)
(-413.752 0 0)
(-413.752 0 0)
(-413.752 0 0)
(-413.752 0 0)
(-413.752 0 0)
(-413.752 0 0)
(-359.555 0 0)
(-457.909 0 0)
(-392.325 0 0)
(-432.114 0 0)
(-406.94 0 -0)
(-423.009 0 0)
(-412.897 0 -0)
(-419.336 0 0)
(-415.248 0 -0)
(-417.845 0 0)
(-416.193 0 -0)
(-417.243 0 0)
(-416.576 0 -0)
(-417 0 0)
(-416.73 0 -0)
(-416.902 0 0)
(-416.793 0 -0)
(-416.862 0 0)
(-416.818 0 -0)
(-416.846 0 0)
(-416.828 0 -0)
(-416.839 0 0)
(-416.832 0 -0)
(-416.837 0 0)
(-416.834 0 -0)
(-416.836 0 0)
(-416.834 0 -0)
(-416.835 0 0)
(-416.835 0 -0)
(-416.835 0 0)
(-416.835 0 -0)
(-416.835 0 0)
(-416.835 0 -0)
(-416.835 0 0)
(-416.835 0 -0)
(-416.835 0 0)
(-416.835 0 -0)
(-416.835 0 0)
(-416.835 0 -0)
(-416.835 0 0)
(-416.835 0 -0)
(-416.835 0 0)
(-416.835 0 -0)
(-416.835 0 0)
(-416.835 0 -0)
(-416.835 0 0)
(-416.835 0 -0)
(-416.835 0 0)
(-416.835 0 -0)
(-416.835 0 0)
(-416.835 0 -0)
(-416.835 0 0)
(-416.835 0 -0)
(-416.835 0 0)
(-416.835 0 -0)
(-416.835 0 0)
(-416.835 0 -0)
(-416.835 0 0)
(-416.835 0 -0)
(-416.835 0 0)
(-416.835 0 -0)
(-416.835 0 0)
(-416.835 0 -0)
(-416.835 0 0)
(-416.835 0 -0)
(-416.835 0 0)
(-416.835 0 -0)
(-416.835 0 0)
(-416.835 0 0)
(-416.835 0 0)
(-416.835 0 0)
(-416.835 0 -0)
(-416.835 0 -0)
(-416.835 0 0)
(-416.835 0 0)
(-416.835 0 0)
(-416.835 0 0)
(-416.835 0 0)
(-416.835 0 0)
(-416.835 0 0)
(-416.835 0 0)
(-416.835 0 0)
(-416.835 0 0)
(-416.835 0 0)
(-416.835 0 0)
(-416.835 0 0)
(-416.835 0 0)
(-416.835 0 0)
(-416.835 0 0)
(-416.835 0 0)
(-416.835 0 0)
(-416.835 0 0)
(-416.835 0 0)
(-416.835 0 0)
(-416.835 0 0)
(-416.835 0 0)
(-416.835 0 0)
(-416.835 0 0)
(-416.835 0 0)
(-416.835 0 0)
(-359.059 0 0)
(-457.957 0 0)
(-393.638 0 0)
(-433.35 0 0)
(-408.134 0 -0)
(-424.21 0 0)
(-414.07 0 -0)
(-420.525 0 0)
(-416.425 0 -0)
(-419.03 0 0)
(-417.374 0 -0)
(-418.426 0 0)
(-417.757 0 -0)
(-418.183 0 0)
(-417.912 0 -0)
(-418.084 0 0)
(-417.975 0 -0)
(-418.044 0 0)
(-418 0 -0)
(-418.028 0 0)
(-418.01 0 -0)
(-418.022 0 0)
(-418.015 0 -0)
(-418.019 0 0)
(-418.016 0 -0)
(-418.018 0 0)
(-418.017 0 -0)
(-418.018 0 0)
(-418.017 0 -0)
(-418.017 0 0)
(-418.017 0 -0)
(-418.017 0 0)
(-418.017 0 -0)
(-418.017 0 0)
(-418.017 0 -0)
(-418.017 0 0)
(-418.017 0 -0)
(-418.017 0 0)
(-418.017 0 -0)
(-418.017 0 0)
(-418.017 0 -0)
(-418.017 0 0)
(-418.017 0 -0)
(-418.017 0 0)
(-418.017 0 -0)
(-418.017 0 0)
(-418.017 0 -0)
(-418.017 0 0)
(-418.017 0 -0)
(-418.017 0 0)
(-418.017 0 -0)
(-418.017 0 0)
(-418.017 0 -0)
(-418.017 0 0)
(-418.017 0 -0)
(-418.017 0 0)
(-418.017 0 -0)
(-418.017 0 0)
(-418.017 0 -0)
(-418.017 0 0)
(-418.017 0 -0)
(-418.017 0 0)
(-418.017 0 -0)
(-418.017 0 0)
(-418.017 0 0)
(-418.017 0 0)
(-418.017 0 -0)
(-418.017 0 0)
(-418.017 0 0)
(-418.017 0 0)
(-418.017 0 0)
(-418.017 0 0)
(-418.017 0 -0)
(-418.017 0 0)
(-418.017 0 0)
(-418.017 0 0)
(-418.017 0 0)
(-418.017 0 0)
(-418.017 0 0)
(-418.017 0 0)
(-418.017 0 0)
(-418.017 0 0)
(-418.017 0 0)
(-418.017 0 0)
(-418.017 0 0)
(-418.017 0 0)
(-418.017 0 0)
(-418.017 0 0)
(-418.017 0 0)
(-418.017 0 0)
(-418.017 0 0)
(-418.017 0 0)
(-418.017 0 0)
(-418.017 0 0)
(-418.017 0 0)
(-418.017 0 0)
(-418.017 0 0)
(-418.017 0 0)
(-418.017 0 0)
(-418.017 0 0)
(-358.189 0 0)
(-457.369 0 0)
(-394.218 0 0)
(-433.839 0 0)
(-408.61 0 -0)
(-424.676 0 0)
(-414.518 0 -0)
(-420.982 0 0)
(-416.876 0 -0)
(-419.485 0 0)
(-417.826 0 -0)
(-418.881 0 0)
(-418.21 0 -0)
(-418.636 0 0)
(-418.365 0 -0)
(-418.538 0 0)
(-418.428 0 -0)
(-418.498 0 0)
(-418.454 0 -0)
(-418.482 0 0)
(-418.464 0 -0)
(-418.475 0 0)
(-418.468 0 -0)
(-418.473 0 0)
(-418.47 0 -0)
(-418.472 0 0)
(-418.47 0 -0)
(-418.471 0 0)
(-418.471 0 -0)
(-418.471 0 0)
(-418.471 0 -0)
(-418.471 0 0)
(-418.471 0 -0)
(-418.471 0 0)
(-418.471 0 -0)
(-418.471 0 0)
(-418.471 0 -0)
(-418.471 0 0)
(-418.471 0 -0)
(-418.471 0 0)
(-418.471 0 -0)
(-418.471 0 0)
(-418.471 0 -0)
(-418.471 0 0)
(-418.471 0 -0)
(-418.471 0 0)
(-418.471 0 -0)
(-418.471 0 0)
(-418.471 0 -0)
(-418.471 0 0)
(-418.471 0 -0)
(-418.471 0 0)
(-418.471 0 -0)
(-418.471 0 0)
(-418.471 0 -0)
(-418.471 0 0)
(-418.471 0 -0)
(-418.471 0 0)
(-418.471 0 -0)
(-418.471 0 0)
(-418.471 0 -0)
(-418.471 0 0)
(-418.471 0 -0)
(-418.471 0 0)
(-418.471 0 0)
(-418.471 0 0)
(-418.471 0 -0)
(-418.471 0 -0)
(-418.471 0 0)
(-418.471 0 0)
(-418.471 0 0)
(-418.471 0 0)
(-418.471 0 -0)
(-418.471 0 0)
(-418.471 0 0)
(-418.471 0 0)
(-418.471 0 0)
(-418.471 0 0)
(-418.471 0 0)
(-418.471 0 0)
(-418.471 0 0)
(-418.471 0 0)
(-418.471 0 0)
(-418.471 0 0)
(-418.471 0 0)
(-418.471 0 0)
(-418.471 0 0)
(-418.471 0 0)
(-418.471 0 0)
(-418.471 0 0)
(-418.471 0 0)
(-418.471 0 0)
(-418.471 0 0)
(-418.471 0 0)
(-418.471 0 0)
(-418.471 0 0)
(-418.471 0 0)
(-418.471 0 0)
(-418.471 0 0)
(-418.471 0 0)
(-357.265 0 0)
(-456.613 0 0)
(-394.502 0 0)
(-434.041 0 0)
(-408.811 0 -0)
(-424.86 0 0)
(-414.688 0 -0)
(-421.159 0 0)
(-417.047 0 -0)
(-419.661 0 0)
(-417.999 0 -0)
(-419.055 0 0)
(-418.384 0 -0)
(-418.811 0 0)
(-418.539 0 -0)
(-418.712 0 0)
(-418.602 0 -0)
(-418.672 0 0)
(-418.627 0 -0)
(-418.656 0 0)
(-418.638 0 -0)
(-418.649 0 0)
(-418.642 0 -0)
(-418.646 0 0)
(-418.644 0 -0)
(-418.645 0 0)
(-418.644 0 -0)
(-418.645 0 0)
(-418.645 0 -0)
(-418.645 0 0)
(-418.645 0 -0)
(-418.645 0 0)
(-418.645 0 -0)
(-418.645 0 0)
(-418.645 0 -0)
(-418.645 0 0)
(-418.645 0 -0)
(-418.645 0 0)
(-418.645 0 -0)
(-418.645 0 0)
(-418.645 0 -0)
(-418.645 0 0)
(-418.645 0 -0)
(-418.645 0 0)
(-418.645 0 -0)
(-418.645 0 0)
(-418.645 0 -0)
(-418.645 0 0)
(-418.645 0 -0)
(-418.645 0 0)
(-418.645 0 -0)
(-418.645 0 0)
(-418.645 0 -0)
(-418.645 0 0)
(-418.645 0 -0)
(-418.645 0 0)
(-418.645 0 -0)
(-418.645 0 0)
(-418.645 0 -0)
(-418.645 0 0)
(-418.645 0 -0)
(-418.645 0 0)
(-418.645 0 -0)
(-418.645 0 0)
(-418.645 0 0)
(-418.645 0 0)
(-418.645 0 -0)
(-418.645 0 0)
(-418.645 0 -0)
(-418.645 0 0)
(-418.645 0 0)
(-418.645 0 0)
(-418.645 0 -0)
(-418.645 0 0)
(-418.645 0 0)
(-418.645 0 0)
(-418.645 0 0)
(-418.645 0 0)
(-418.645 0 0)
(-418.645 0 0)
(-418.645 0 0)
(-418.645 0 0)
(-418.645 0 0)
(-418.645 0 0)
(-418.645 0 0)
(-418.645 0 0)
(-418.645 0 0)
(-418.645 0 0)
(-418.645 0 0)
(-418.645 0 0)
(-418.645 0 0)
(-418.645 0 0)
(-418.645 0 0)
(-418.645 0 0)
(-418.645 0 0)
(-418.645 0 0)
(-418.645 0 0)
(-418.645 0 0)
(-418.645 0 0)
(-418.645 0 0)
(-356.39 0 0)
(-455.851 0 0)
(-394.661 0 0)
(-434.131 0 0)
(-408.906 0 -0)
(-424.936 0 0)
(-414.752 0 -0)
(-421.228 0 0)
(-417.112 0 -0)
(-419.728 0 0)
(-418.065 0 -0)
(-419.122 0 0)
(-418.45 0 -0)
(-418.877 0 0)
(-418.606 0 -0)
(-418.779 0 0)
(-418.669 0 -0)
(-418.739 0 0)
(-418.694 0 -0)
(-418.722 0 0)
(-418.704 0 -0)
(-418.716 0 0)
(-418.709 0 -0)
(-418.713 0 0)
(-418.71 0 -0)
(-418.712 0 0)
(-418.711 0 -0)
(-418.712 0 0)
(-418.711 0 -0)
(-418.712 0 0)
(-418.711 0 -0)
(-418.711 0 0)
(-418.711 0 -0)
(-418.711 0 0)
(-418.711 0 -0)
(-418.711 0 0)
(-418.711 0 -0)
(-418.711 0 0)
(-418.711 0 -0)
(-418.711 0 0)
(-418.711 0 -0)
(-418.711 0 0)
(-418.711 0 -0)
(-418.711 0 0)
(-418.711 0 -0)
(-418.711 0 0)
(-418.711 0 -0)
(-418.711 0 0)
(-418.711 0 -0)
(-418.711 0 0)
(-418.711 0 -0)
(-418.711 0 0)
(-418.711 0 -0)
(-418.711 0 0)
(-418.711 0 -0)
(-418.711 0 0)
(-418.711 0 -0)
(-418.711 0 0)
(-418.711 0 -0)
(-418.711 0 0)
(-418.711 0 -0)
(-418.711 0 0)
(-418.711 0 -0)
(-418.711 0 0)
(-418.711 0 0)
(-418.711 0 0)
(-418.711 0 -0)
(-418.711 0 0)
(-418.711 0 -0)
(-418.711 0 -0)
(-418.711 0 0)
(-418.711 0 0)
(-418.711 0 -0)
(-418.711 0 0)
(-418.711 0 0)
(-418.711 0 0)
(-418.711 0 0)
(-418.711 0 0)
(-418.711 0 0)
(-418.711 0 0)
(-418.711 0 0)
(-418.711 0 0)
(-418.711 0 0)
(-418.711 0 0)
(-418.711 0 0)
(-418.711 0 0)
(-418.711 0 0)
(-418.711 0 0)
(-418.711 0 0)
(-418.711 0 0)
(-418.711 0 0)
(-418.711 0 0)
(-418.711 0 0)
(-418.711 0 0)
(-418.711 0 0)
(-418.711 0 0)
(-418.711 0 0)
(-418.711 0 0)
(-418.711 0 0)
(-418.711 0 0)
(-355.596 0 0)
(-455.145 0 0)
(-394.762 0 0)
(-434.176 0 0)
(-408.96 0 -0)
(-424.969 0 0)
(-414.775 0 -0)
(-421.256 0 0)
(-417.136 0 -0)
(-419.755 0 0)
(-418.09 0 -0)
(-419.148 0 0)
(-418.475 0 -0)
(-418.903 0 0)
(-418.631 0 -0)
(-418.804 0 0)
(-418.694 0 -0)
(-418.764 0 0)
(-418.72 0 -0)
(-418.748 0 0)
(-418.73 0 -0)
(-418.741 0 0)
(-418.734 0 -0)
(-418.739 0 0)
(-418.736 0 -0)
(-418.738 0 0)
(-418.737 0 -0)
(-418.737 0 0)
(-418.737 0 -0)
(-418.737 0 0)
(-418.737 0 -0)
(-418.737 0 0)
(-418.737 0 -0)
(-418.737 0 0)
(-418.737 0 -0)
(-418.737 0 0)
(-418.737 0 -0)
(-418.737 0 0)
(-418.737 0 -0)
(-418.737 0 0)
(-418.737 0 -0)
(-418.737 0 0)
(-418.737 0 -0)
(-418.737 0 0)
(-418.737 0 -0)
(-418.737 0 0)
(-418.737 0 -0)
(-418.737 0 0)
(-418.737 0 -0)
(-418.737 0 0)
(-418.737 0 -0)
(-418.737 0 0)
(-418.737 0 -0)
(-418.737 0 0)
(-418.737 0 -0)
(-418.737 0 0)
(-418.737 0 -0)
(-418.737 0 0)
(-418.737 0 -0)
(-418.737 0 0)
(-418.737 0 -0)
(-418.737 0 0)
(-418.737 0 -0)
(-418.737 0 0)
(-418.737 0 0)
(-418.737 0 -0)
(-418.737 0 -0)
(-418.737 0 0)
(-418.737 0 0)
(-418.737 0 -0)
(-418.737 0 0)
(-418.737 0 0)
(-418.737 0 -0)
(-418.737 0 0)
(-418.737 0 0)
(-418.737 0 0)
(-418.737 0 0)
(-418.737 0 0)
(-418.737 0 0)
(-418.737 0 0)
(-418.737 0 0)
(-418.737 0 0)
(-418.737 0 0)
(-418.737 0 0)
(-418.737 0 0)
(-418.737 0 0)
(-418.737 0 0)
(-418.737 0 0)
(-418.737 0 0)
(-418.737 0 0)
(-418.737 0 0)
(-418.737 0 0)
(-418.737 0 0)
(-418.737 0 0)
(-418.737 0 0)
(-418.737 0 0)
(-418.737 0 0)
(-418.737 0 0)
(-418.737 0 0)
(-418.737 0 0)
(-354.891 0 0)
(-454.51 0 0)
(-394.833 0 0)
(-434.202 0 0)
(-408.998 0 -0)
(-424.986 0 0)
(-414.783 0 -0)
(-421.267 0 0)
(-417.144 0 -0)
(-419.766 0 0)
(-418.099 0 -0)
(-419.159 0 0)
(-418.485 0 -0)
(-418.913 0 0)
(-418.641 0 -0)
(-418.814 0 0)
(-418.704 0 -0)
(-418.774 0 0)
(-418.729 0 -0)
(-418.758 0 0)
(-418.74 0 -0)
(-418.751 0 0)
(-418.744 0 -0)
(-418.749 0 0)
(-418.746 0 -0)
(-418.747 0 0)
(-418.746 0 -0)
(-418.747 0 0)
(-418.747 0 -0)
(-418.747 0 0)
(-418.747 0 -0)
(-418.747 0 0)
(-418.747 0 -0)
(-418.747 0 0)
(-418.747 0 -0)
(-418.747 0 0)
(-418.747 0 -0)
(-418.747 0 0)
(-418.747 0 -0)
(-418.747 0 0)
(-418.747 0 -0)
(-418.747 0 0)
(-418.747 0 -0)
(-418.747 0 0)
(-418.747 0 -0)
(-418.747 0 0)
(-418.747 0 -0)
(-418.747 0 0)
(-418.747 0 -0)
(-418.747 0 0)
(-418.747 0 -0)
(-418.747 0 0)
(-418.747 0 -0)
(-418.747 0 0)
(-418.747 0 -0)
(-418.747 0 0)
(-418.747 0 -0)
(-418.747 0 0)
(-418.747 0 -0)
(-418.747 0 0)
(-418.747 0 -0)
(-418.747 0 0)
(-418.747 0 -0)
(-418.747 0 0)
(-418.747 0 0)
(-418.747 0 0)
(-418.747 0 -0)
(-418.747 0 0)
(-418.747 0 0)
(-418.747 0 0)
(-418.747 0 0)
(-418.747 0 0)
(-418.747 0 -0)
(-418.747 0 0)
(-418.747 0 0)
(-418.747 0 0)
(-418.747 0 0)
(-418.747 0 0)
(-418.747 0 0)
(-418.747 0 0)
(-418.747 0 0)
(-418.747 0 0)
(-418.747 0 0)
(-418.747 0 0)
(-418.747 0 0)
(-418.747 0 0)
(-418.747 0 0)
(-418.747 0 0)
(-418.747 0 0)
(-418.747 0 0)
(-418.747 0 0)
(-418.747 0 0)
(-418.747 0 0)
(-418.747 0 0)
(-418.747 0 0)
(-418.747 0 0)
(-418.747 0 0)
(-418.747 0 0)
(-418.747 0 0)
(-418.747 0 0)
(-354.274 0 0)
(-453.953 0 0)
(-394.887 0 0)
(-434.219 0 0)
(-409.027 0 -0)
(-424.996 0 0)
(-414.786 0 -0)
(-421.272 0 0)
(-417.146 0 -0)
(-419.77 0 0)
(-418.102 0 -0)
(-419.163 0 0)
(-418.488 0 -0)
(-418.917 0 0)
(-418.645 0 -0)
(-418.818 0 0)
(-418.708 0 -0)
(-418.778 0 0)
(-418.733 0 -0)
(-418.762 0 0)
(-418.744 0 -0)
(-418.755 0 0)
(-418.748 0 -0)
(-418.752 0 0)
(-418.749 0 -0)
(-418.751 0 0)
(-418.75 0 -0)
(-418.751 0 0)
(-418.75 0 -0)
(-418.751 0 0)
(-418.75 0 -0)
(-418.751 0 0)
(-418.751 0 -0)
(-418.751 0 0)
(-418.751 0 -0)
(-418.751 0 0)
(-418.751 0 -0)
(-418.751 0 0)
(-418.751 0 -0)
(-418.751 0 0)
(-418.751 0 -0)
(-418.751 0 0)
(-418.751 0 -0)
(-418.751 0 0)
(-418.751 0 -0)
(-418.751 0 0)
(-418.751 0 -0)
(-418.751 0 0)
(-418.751 0 -0)
(-418.751 0 0)
(-418.751 0 -0)
(-418.751 0 0)
(-418.751 0 -0)
(-418.751 0 0)
(-418.751 0 -0)
(-418.751 0 0)
(-418.751 0 -0)
(-418.751 0 0)
(-418.751 0 -0)
(-418.751 0 0)
(-418.751 0 -0)
(-418.751 0 0)
(-418.751 0 -0)
(-418.751 0 0)
(-418.751 0 0)
(-418.751 0 0)
(-418.751 0 -0)
(-418.751 0 -0)
(-418.751 0 0)
(-418.751 0 -0)
(-418.751 0 0)
(-418.751 0 0)
(-418.751 0 -0)
(-418.751 0 0)
(-418.751 0 0)
(-418.751 0 0)
(-418.751 0 0)
(-418.751 0 0)
(-418.751 0 0)
(-418.751 0 0)
(-418.751 0 0)
(-418.751 0 0)
(-418.751 0 0)
(-418.751 0 0)
(-418.751 0 0)
(-418.751 0 0)
(-418.751 0 0)
(-418.751 0 0)
(-418.751 0 0)
(-418.751 0 0)
(-418.751 0 0)
(-418.751 0 0)
(-418.751 0 0)
(-418.751 0 0)
(-418.751 0 0)
(-418.751 0 0)
(-418.751 0 0)
(-418.751 0 0)
(-418.751 0 0)
(-418.751 0 0)
(-353.741 0 0)
(-453.47 0 0)
(-394.929 0 0)
(-434.232 0 0)
(-409.052 0 -0)
(-425.004 0 0)
(-414.786 0 -0)
(-421.275 0 0)
(-417.146 0 -0)
(-419.772 0 0)
(-418.103 0 -0)
(-419.165 0 0)
(-418.49 0 -0)
(-418.919 0 0)
(-418.646 0 -0)
(-418.819 0 0)
(-418.709 0 -0)
(-418.779 0 0)
(-418.735 0 -0)
(-418.763 0 0)
(-418.745 0 -0)
(-418.756 0 0)
(-418.749 0 -0)
(-418.754 0 0)
(-418.751 0 -0)
(-418.753 0 0)
(-418.752 0 -0)
(-418.752 0 0)
(-418.752 0 -0)
(-418.752 0 0)
(-418.752 0 -0)
(-418.752 0 0)
(-418.752 0 -0)
(-418.752 0 0)
(-418.752 0 -0)
(-418.752 0 0)
(-418.752 0 -0)
(-418.752 0 0)
(-418.752 0 -0)
(-418.752 0 0)
(-418.752 0 -0)
(-418.752 0 0)
(-418.752 0 -0)
(-418.752 0 0)
(-418.752 0 -0)
(-418.752 0 0)
(-418.752 0 -0)
(-418.752 0 0)
(-418.752 0 -0)
(-418.752 0 0)
(-418.752 0 -0)
(-418.752 0 0)
(-418.752 0 -0)
(-418.752 0 0)
(-418.752 0 -0)
(-418.752 0 0)
(-418.752 0 -0)
(-418.752 0 0)
(-418.752 0 -0)
(-418.752 0 0)
(-418.752 0 -0)
(-418.752 0 0)
(-418.752 0 -0)
(-418.752 0 0)
(-418.752 0 0)
(-418.752 0 0)
(-418.752 0 -0)
(-418.752 0 -0)
(-418.752 0 0)
(-418.752 0 -0)
(-418.752 0 0)
(-418.752 0 0)
(-418.752 0 0)
(-418.752 0 0)
(-418.752 0 0)
(-418.752 0 0)
(-418.752 0 0)
(-418.752 0 0)
(-418.752 0 0)
(-418.752 0 0)
(-418.752 0 0)
(-418.752 0 0)
(-418.752 0 0)
(-418.752 0 0)
(-418.752 0 0)
(-418.752 0 0)
(-418.752 0 0)
(-418.752 0 0)
(-418.752 0 0)
(-418.752 0 0)
(-418.752 0 0)
(-418.752 0 0)
(-418.752 0 0)
(-418.752 0 0)
(-418.752 0 0)
(-418.752 0 0)
(-418.752 0 0)
(-418.752 0 0)
(-418.752 0 0)
(-418.752 0 0)
(-353.292 0 0)
(-453.059 0 0)
(-394.963 0 0)
(-434.242 0 0)
(-409.074 0 -0)
(-425.009 0 0)
(-414.786 0 -0)
(-421.276 0 0)
(-417.146 0 -0)
(-419.774 0 0)
(-418.103 0 -0)
(-419.165 0 0)
(-418.49 0 -0)
(-418.919 0 0)
(-418.646 0 -0)
(-418.82 0 0)
(-418.71 0 -0)
(-418.78 0 0)
(-418.735 0 -0)
(-418.764 0 0)
(-418.746 0 -0)
(-418.757 0 0)
(-418.75 0 -0)
(-418.754 0 0)
(-418.751 0 -0)
(-418.753 0 0)
(-418.752 0 -0)
(-418.753 0 0)
(-418.752 0 -0)
(-418.753 0 0)
(-418.752 0 -0)
(-418.753 0 0)
(-418.752 0 -0)
(-418.753 0 0)
(-418.753 0 -0)
(-418.753 0 0)
(-418.753 0 -0)
(-418.753 0 0)
(-418.753 0 -0)
(-418.753 0 0)
(-418.753 0 -0)
(-418.753 0 0)
(-418.753 0 -0)
(-418.753 0 0)
(-418.753 0 -0)
(-418.753 0 0)
(-418.753 0 -0)
(-418.753 0 0)
(-418.753 0 -0)
(-418.753 0 0)
(-418.753 0 -0)
(-418.753 0 0)
(-418.753 0 -0)
(-418.753 0 0)
(-418.753 0 -0)
(-418.753 0 0)
(-418.753 0 -0)
(-418.753 0 0)
(-418.753 0 -0)
(-418.753 0 0)
(-418.753 0 -0)
(-418.753 0 0)
(-418.753 0 -0)
(-418.753 0 0)
(-418.753 0 -0)
(-418.753 0 0)
(-418.753 0 -0)
(-418.753 0 -0)
(-418.753 0 0)
(-418.753 0 -0)
(-418.753 0 0)
(-418.753 0 0)
(-418.753 0 0)
(-418.753 0 0)
(-418.753 0 0)
(-418.753 0 0)
(-418.753 0 0)
(-418.753 0 0)
(-418.753 0 0)
(-418.753 0 0)
(-418.753 0 0)
(-418.753 0 0)
(-418.753 0 0)
(-418.753 0 0)
(-418.753 0 0)
(-418.753 0 0)
(-418.753 0 0)
(-418.753 0 0)
(-418.753 0 0)
(-418.753 0 0)
(-418.753 0 0)
(-418.753 0 0)
(-418.753 0 0)
(-418.753 0 0)
(-418.753 0 0)
(-418.753 0 0)
(-418.753 0 0)
(-418.753 0 0)
(-418.753 0 0)
(-418.753 0 0)
(-352.923 0 0)
(-452.719 0 0)
(-394.988 0 0)
(-434.25 0 0)
(-409.092 0 -0)
(-425.014 0 0)
(-414.785 0 -0)
(-421.277 0 0)
(-417.145 0 -0)
(-419.774 0 0)
(-418.103 0 -0)
(-419.166 0 0)
(-418.49 0 -0)
(-418.92 0 0)
(-418.647 0 -0)
(-418.82 0 0)
(-418.71 0 -0)
(-418.78 0 0)
(-418.735 0 -0)
(-418.764 0 0)
(-418.746 0 -0)
(-418.757 0 0)
(-418.75 0 -0)
(-418.755 0 0)
(-418.752 0 -0)
(-418.753 0 0)
(-418.752 0 -0)
(-418.753 0 0)
(-418.753 0 -0)
(-418.753 0 0)
(-418.753 0 -0)
(-418.753 0 0)
(-418.753 0 -0)
(-418.753 0 0)
(-418.753 0 -0)
(-418.753 0 0)
(-418.753 0 -0)
(-418.753 0 0)
(-418.753 0 -0)
(-418.753 0 0)
(-418.753 0 -0)
(-418.753 0 0)
(-418.753 0 -0)
(-418.753 0 0)
(-418.753 0 -0)
(-418.753 0 0)
(-418.753 0 -0)
(-418.753 0 0)
(-418.753 0 -0)
(-418.753 0 0)
(-418.753 0 -0)
(-418.753 0 0)
(-418.753 0 -0)
(-418.753 0 0)
(-418.753 0 -0)
(-418.753 0 0)
(-418.753 0 -0)
(-418.753 0 0)
(-418.753 0 0)
(-418.753 0 0)
(-418.753 0 0)
(-418.753 0 0)
(-418.753 0 -0)
(-418.753 0 0)
(-418.753 0 0)
(-418.753 0 0)
(-418.753 0 -0)
(-418.753 0 -0)
(-418.753 0 0)
(-418.753 0 -0)
(-418.753 0 0)
(-418.753 0 0)
(-418.753 0 0)
(-418.753 0 0)
(-418.753 0 0)
(-418.753 0 0)
(-418.753 0 0)
(-418.753 0 0)
(-418.753 0 0)
(-418.753 0 0)
(-418.753 0 0)
(-418.753 0 0)
(-418.753 0 0)
(-418.753 0 0)
(-418.753 0 0)
(-418.753 0 0)
(-418.753 0 0)
(-418.753 0 0)
(-418.753 0 0)
(-418.753 0 0)
(-418.753 0 0)
(-418.753 0 0)
(-418.753 0 0)
(-418.753 0 0)
(-418.753 0 0)
(-418.753 0 0)
(-418.753 0 0)
(-418.753 0 0)
(-418.753 0 0)
(-418.753 0 0)
(-352.633 0 0)
(-452.449 0 0)
(-395.007 0 0)
(-434.256 0 0)
(-409.107 0 -0)
(-425.017 0 0)
(-414.785 0 -0)
(-421.278 0 0)
(-417.144 0 -0)
(-419.775 0 0)
(-418.103 0 -0)
(-419.166 0 0)
(-418.49 0 -0)
(-418.92 0 0)
(-418.647 0 -0)
(-418.82 0 0)
(-418.71 0 -0)
(-418.78 0 0)
(-418.735 0 -0)
(-418.764 0 0)
(-418.746 0 -0)
(-418.757 0 0)
(-418.75 0 -0)
(-418.755 0 0)
(-418.752 0 -0)
(-418.754 0 0)
(-418.752 0 -0)
(-418.753 0 0)
(-418.753 0 -0)
(-418.753 0 0)
(-418.753 0 -0)
(-418.753 0 0)
(-418.753 0 -0)
(-418.753 0 0)
(-418.753 0 -0)
(-418.753 0 0)
(-418.753 0 -0)
(-418.753 0 0)
(-418.753 0 -0)
(-418.753 0 0)
(-418.753 0 -0)
(-418.753 0 0)
(-418.753 0 -0)
(-418.753 0 0)
(-418.753 0 -0)
(-418.753 0 0)
(-418.753 0 -0)
(-418.753 0 0)
(-418.753 0 -0)
(-418.753 0 0)
(-418.753 0 -0)
(-418.753 0 0)
(-418.753 0 -0)
(-418.753 0 0)
(-418.753 0 -0)
(-418.753 0 0)
(-418.753 0 -0)
(-418.753 0 0)
(-418.753 0 0)
(-418.753 0 0)
(-418.753 0 -0)
(-418.753 0 0)
(-418.753 0 -0)
(-418.753 0 0)
(-418.753 0 0)
(-418.753 0 0)
(-418.753 0 -0)
(-418.753 0 -0)
(-418.753 0 0)
(-418.753 0 -0)
(-418.753 0 0)
(-418.753 0 0)
(-418.753 0 0)
(-418.753 0 0)
(-418.753 0 0)
(-418.753 0 0)
(-418.753 0 0)
(-418.753 0 0)
(-418.753 0 0)
(-418.753 0 0)
(-418.753 0 0)
(-418.753 0 0)
(-418.753 0 0)
(-418.753 0 0)
(-418.753 0 0)
(-418.753 0 0)
(-418.753 0 0)
(-418.753 0 0)
(-418.753 0 0)
(-418.753 0 0)
(-418.753 0 0)
(-418.753 0 0)
(-418.753 0 0)
(-418.753 0 0)
(-418.753 0 0)
(-418.753 0 0)
(-418.753 0 0)
(-418.753 0 0)
(-418.753 0 0)
(-418.753 0 0)
(-352.418 0 0)
(-452.248 0 0)
(-395.021 0 0)
(-434.26 0 0)
(-409.118 0 -0)
(-425.02 0 0)
(-414.784 0 -0)
(-421.279 0 0)
(-417.144 0 -0)
(-419.775 0 0)
(-418.103 0 -0)
(-419.166 0 0)
(-418.49 0 -0)
(-418.92 0 0)
(-418.647 0 -0)
(-418.82 0 0)
(-418.71 0 -0)
(-418.78 0 0)
(-418.736 0 -0)
(-418.764 0 0)
(-418.746 0 -0)
(-418.757 0 0)
(-418.75 0 -0)
(-418.755 0 0)
(-418.752 0 -0)
(-418.754 0 0)
(-418.752 0 -0)
(-418.753 0 0)
(-418.753 0 -0)
(-418.753 0 0)
(-418.753 0 -0)
(-418.753 0 0)
(-418.753 0 -0)
(-418.753 0 0)
(-418.753 0 -0)
(-418.753 0 0)
(-418.753 0 -0)
(-418.753 0 0)
(-418.753 0 -0)
(-418.753 0 0)
(-418.753 0 -0)
(-418.753 0 0)
(-418.753 0 -0)
(-418.753 0 0)
(-418.753 0 -0)
(-418.753 0 0)
(-418.753 0 -0)
(-418.753 0 0)
(-418.753 0 -0)
(-418.753 0 0)
(-418.753 0 -0)
(-418.753 0 0)
(-418.753 0 -0)
(-418.753 0 0)
(-418.753 0 -0)
(-418.753 0 0)
(-418.753 0 -0)
(-418.753 0 0)
(-418.753 0 0)
(-418.753 0 0)
(-418.753 0 0)
(-418.753 0 0)
(-418.753 0 -0)
(-418.753 0 0)
(-418.753 0 0)
(-418.753 0 0)
(-418.753 0 -0)
(-418.753 0 -0)
(-418.753 0 0)
(-418.753 0 -0)
(-418.753 0 0)
(-418.753 0 0)
(-418.753 0 0)
(-418.753 0 0)
(-418.753 0 0)
(-418.753 0 0)
(-418.753 0 0)
(-418.753 0 0)
(-418.753 0 0)
(-418.753 0 0)
(-418.753 0 0)
(-418.753 0 0)
(-418.753 0 0)
(-418.753 0 0)
(-418.753 0 0)
(-418.753 0 0)
(-418.753 0 0)
(-418.753 0 0)
(-418.753 0 0)
(-418.753 0 0)
(-418.753 0 0)
(-418.753 0 0)
(-418.753 0 0)
(-418.753 0 0)
(-418.753 0 0)
(-418.753 0 0)
(-418.753 0 0)
(-418.753 0 0)
(-418.753 0 0)
(-418.753 0 0)
(-352.275 0 0)
(-452.115 0 0)
(-395.029 0 0)
(-434.263 0 0)
(-409.126 0 -0)
(-425.021 0 0)
(-414.784 0 -0)
(-421.279 0 0)
(-417.144 0 -0)
(-419.775 0 0)
(-418.103 0 -0)
(-419.166 0 0)
(-418.49 0 -0)
(-418.92 0 0)
(-418.647 0 -0)
(-418.82 0 0)
(-418.71 0 -0)
(-418.78 0 0)
(-418.736 0 -0)
(-418.764 0 0)
(-418.746 0 -0)
(-418.757 0 0)
(-418.75 0 -0)
(-418.755 0 0)
(-418.752 0 -0)
(-418.754 0 0)
(-418.752 0 -0)
(-418.753 0 0)
(-418.753 0 -0)
(-418.753 0 0)
(-418.753 0 -0)
(-418.753 0 0)
(-418.753 0 -0)
(-418.753 0 0)
(-418.753 0 -0)
(-418.753 0 0)
(-418.753 0 -0)
(-418.753 0 0)
(-418.753 0 -0)
(-418.753 0 0)
(-418.753 0 -0)
(-418.753 0 0)
(-418.753 0 -0)
(-418.753 0 0)
(-418.753 0 -0)
(-418.753 0 0)
(-418.753 0 -0)
(-418.753 0 0)
(-418.753 0 -0)
(-418.753 0 0)
(-418.753 0 -0)
(-418.753 0 0)
(-418.753 0 -0)
(-418.753 0 0)
(-418.753 0 -0)
(-418.753 0 0)
(-418.753 0 -0)
(-418.753 0 0)
(-418.753 0 0)
(-418.753 0 0)
(-418.753 0 0)
(-418.753 0 0)
(-418.753 0 -0)
(-418.753 0 -0)
(-418.753 0 0)
(-418.753 0 0)
(-418.753 0 -0)
(-418.753 0 -0)
(-418.753 0 0)
(-418.753 0 -0)
(-418.753 0 0)
(-418.753 0 0)
(-418.753 0 0)
(-418.753 0 0)
(-418.753 0 0)
(-418.753 0 0)
(-418.753 0 0)
(-418.753 0 0)
(-418.753 0 0)
(-418.753 0 0)
(-418.753 0 0)
(-418.753 0 0)
(-418.753 0 0)
(-418.753 0 0)
(-418.753 0 0)
(-418.753 0 0)
(-418.753 0 0)
(-418.753 0 0)
(-418.753 0 0)
(-418.753 0 0)
(-418.753 0 0)
(-418.753 0 0)
(-418.753 0 0)
(-418.753 0 0)
(-418.753 0 0)
(-418.753 0 0)
(-418.753 0 0)
(-418.753 0 0)
(-418.753 0 0)
(-418.753 0 0)
(-352.204 0 0)
(-452.049 0 0)
(-395.033 0 0)
(-434.264 0 0)
(-409.13 0 -0)