/*--------------------------------*- C++ -*----------------------------------*\
| =========                 |                                                 |
| \\      /  F ield         | foam-extend: Open Source CFD                    |
|  \\    /   O peration     | Version:     5.0                                |
|   \\  /    A nd           | Web:         http://www.foam-extend.org         |
|    \\/     M anipulation  |                                                 |
\*---------------------------------------------------------------------------*/
FoamFile
{
    version     2.0;
    format      ascii;
    class       surfaceScalarField;
    location    "1";
    object      phi;
}
// * * * * * * * * * * * * * * * * * * * * * * * * * * * * * * * * * * * * * //

dimensions      [0 3 -1 0 0 0 0];

internalField   nonuniform List<scalar> 
7860
(
0.00255977
0.00244023
0.00234051
0.000219257
0.00236261
-2.2099e-05
0.00232801
3.45941e-05
0.00235277
-2.47546e-05
0.00233807
1.46962e-05
0.0023479
-9.8323e-06
0.00234171
6.19732e-06
0.00234565
-3.94319e-06
0.00234313
2.51688e-06
0.00234473
-1.59737e-06
0.00234371
1.01652e-06
0.00234436
-6.46227e-07
0.00234395
4.10826e-07
0.00234421
-2.61192e-07
0.00234404
1.66055e-07
0.00234415
-1.05561e-07
0.00234408
6.71135e-08
0.00234413
-4.26631e-08
0.0023441
2.71243e-08
0.00234412
-1.72426e-08
0.00234411
1.09624e-08
0.00234411
-6.96869e-09
0.00234411
4.43053e-09
0.00234411
-2.81643e-09
0.00234411
1.79062e-09
0.00234411
-1.13828e-09
0.00234411
7.2369e-10
0.00234411
-4.60041e-10
0.00234411
2.92483e-10
0.00234411
-1.85928e-10
0.00234411
1.18209e-10
0.00234411
-7.51438e-11
0.00234411
4.77747e-11
0.00234411
-3.03698e-11
0.00234411
1.93084e-11
0.00234411
-1.22741e-11
0.00234411
7.80359e-12
0.00234411
-4.96068e-12
0.00234411
3.15388e-12
0.00234411
-2.00488e-12
0.00234411
1.27465e-12
0.00234411
-8.10276e-13
0.00234411
5.15145e-13
0.00234411
-3.27492e-13
0.00234411
2.08179e-13
0.00234411
-1.32358e-13
0.00234411
8.41463e-14
0.00234411
-5.35352e-14
0.00234411
3.39693e-14
0.00234411
-2.16217e-14
0.00234411
1.37655e-14
0.00234411
-8.74099e-15
0.00234411
5.48352e-15
0.00234411
-3.49822e-15
0.00234411
2.2739e-15
0.00234411
-1.4167e-15
0.00234411
8.85259e-16
0.00234411
-5.70532e-16
0.00234411
3.50679e-16
0.00234411
-2.51685e-16
0.00234411
1.78324e-16
0.00234411
-1.21314e-16
0.00234411
6.90326e-17
0.00234411
-6.40018e-18
0.00234411
3.50894e-17
0.00234411
-1.55803e-17
0.00234411
1.39774e-17
0.00234411
3.49699e-17
0.00234411
-1.13222e-17
0.00234411
-2.77281e-17
0.00234411
-1.89657e-17
0.00234411
-5.36368e-18
0.00234411
1.96729e-17
0.00234411
1.49605e-17
0.00234411
5.79471e-18
0.00234411
1.07055e-17
0.00234411
2.21858e-17
0.00234411
3.23653e-17
0.00234411
5.29253e-17
0.00234411
5.41197e-17
0.00234411
2.57145e-17
0.00234411
2.47191e-17
0.00234411
7.6424e-17
0.00234411
7.88683e-17
0.00234411
9.65402e-17
0.00234411
8.61387e-17
0.00234411
1.18912e-16
0.00234411
2.23997e-16
0.00234411
2.57895e-16
0.00234411
2.23935e-16
0.00234411
2.03937e-16
0.00234411
2.17222e-16
0.00234411
3.06655e-16
0.00234411
2.87131e-16
0.00234411
3.72794e-16
0.00234411
5.16289e-16
0.00234411
4.94699e-16
0.00234411
4.71709e-16
4.08063e-16
0.00429922
0.00314102
0.00415517
0.000363304
0.00412627
6.80521e-06
0.00411945
4.14084e-05
0.00412756
-3.28584e-05
0.00412403
1.8226e-05
0.00412714
-1.29458e-05
0.00412527
8.07183e-06
0.00412647
-5.14909e-06
0.00412569
3.29984e-06
0.00412618
-2.09092e-06
0.00412587
1.33205e-06
0.00412607
-8.46887e-07
0.00412594
5.38338e-07
0.00412602
-3.42329e-07
0.00412597
2.1762e-07
0.004126
-1.38351e-07
0.00412598
8.7957e-08
0.00412599
-5.59159e-08
0.00412599
3.55484e-08
0.00412599
-2.25989e-08
0.00412599
1.43671e-08
0.00412599
-9.13347e-09
0.00412599
5.80654e-09
0.00412599
-3.69134e-09
0.00412599
2.34675e-09
0.00412599
-1.49188e-09
0.00412599
9.4845e-10
0.00412599
-6.0295e-10
0.00412599
3.83321e-10
0.00412599
-2.43685e-10
0.00412599
1.54921e-10
0.00412599
-9.84866e-11
0.00412599
6.26126e-11
0.00412599
-3.98037e-11
0.00412599
2.53054e-11
0.00412599
-1.60867e-11
0.00412599
1.02274e-11
0.00412599
-6.50158e-12
0.00412599
4.13356e-12
0.00412599
-2.62766e-12
0.00412599
1.67057e-12
0.00412599
-1.062e-12
0.00412599
6.7514e-13
0.00412599
-4.2919e-13
0.00412599
2.7287e-13
0.00412599
-1.73486e-13
0.00412599
1.10399e-13
0.00412599
-7.01419e-14
0.00412599
4.4606e-14
0.00412599
-2.83825e-14
0.00412599
1.80422e-14
0.00412599
-1.13785e-14
0.00412599
7.21035e-15
0.00412599
-4.55191e-15
0.00412599
3.0314e-15
0.00412599
-1.86003e-15
0.00412599
1.23299e-15
0.00412599
-7.29437e-16
0.00412599
4.43087e-16
0.00412599
-3.23963e-16
0.00412599
2.10581e-16
0.00412599
-1.66871e-16
0.00412599
2.00976e-17
0.00412599
2.2799e-17
0.00412599
3.11424e-17
0.00412599
-4.84562e-17
0.00412599
4.78422e-17
0.00412599
6.51631e-17
0.00412599
1.71409e-17
0.00412599
2.39276e-17
0.00412599
-3.77546e-17
0.00412599
-2.63991e-17
0.00412599
6.73771e-18
0.00412599
8.07643e-17
0.00412599
6.44304e-17
0.00412599
4.0159e-17
0.00412599
6.96706e-17
0.00412599
1.62107e-16
0.00412599
1.58252e-16
0.00412599
2.28558e-16
0.00412599
2.56177e-16
0.00412599
2.16552e-16
0.00412599
2.77115e-16
0.00412599
3.38366e-16
0.00412599
3.48157e-16
0.00412599
2.94223e-16
0.00412599
4.09227e-16
0.00412599
8.55642e-16
0.00412599
1.11154e-15
0.00412599
1.07012e-15
0.00412599
9.9466e-16
0.00412599
1.20425e-15
0.00412599
1.61412e-15
0.00412599
1.63335e-15
0.00412599
1.86876e-15
0.00412599
2.36883e-15
0.00412599
2.23153e-15
0.00412599
2.27839e-15
1.53799e-15
0.00493579
0.00320522
0.00484572
0.00045338
0.00480397
4.85497e-05
0.00480659
3.87905e-05
0.00480829
-3.45615e-05
0.00480893
1.7592e-05
0.00480948
-1.3499e-05
0.00480925
8.30105e-06
0.00480941
-5.31276e-06
0.00480929
3.42178e-06
0.00480936
-2.16372e-06
0.00480932
1.38037e-06
0.00480935
-8.77657e-07
0.00480933
5.57843e-07
0.00480934
-3.54813e-07
0.00480933
2.25537e-07
0.00480934
-1.43394e-07
0.00480933
9.11603e-08
0.00480934
-5.79547e-08
0.00480933
3.68431e-08
0.00480934
-2.3423e-08
0.00480933
1.48904e-08
0.00480933
-9.46655e-09
0.00480933
6.01803e-09
0.00480933
-3.82596e-09
0.00480933
2.43222e-09
0.00480933
-1.54628e-09
0.00480933
9.82995e-10
0.00480933
-6.24938e-10
0.00480933
3.97283e-10
0.00480933
-2.52572e-10
0.00480933
1.60564e-10
0.00480933
-1.02078e-10
0.00480933
6.48934e-11
0.00480933
-4.1255e-11
0.00480933
2.62274e-11
0.00480933
-1.6673e-11
0.00480933
1.06002e-11
0.00480933
-6.73832e-12
0.00480933
4.28428e-12
0.00480933
-2.7233e-12
0.00480933
1.73138e-12
0.00480933
-1.10067e-12
0.00480933
6.99692e-13
0.00480933
-4.44786e-13
0.00480933
2.82794e-13
0.00480933
-1.79856e-13
0.00480933
1.14351e-13
0.00480933
-7.26989e-14
0.00480933
4.6155e-14
0.00480933
-2.93233e-14
0.00480933
1.86701e-14
0.00480933
-1.1807e-14
0.00480933
7.4309e-15
0.00480933
-4.69639e-15
0.00480933
3.12378e-15
0.00480933
-1.93368e-15
0.00480933
1.31542e-15
0.00480933
-7.22662e-16
0.00480933
4.75907e-16
0.00480933
-3.32419e-16
0.00480933
2.39375e-16
0.00480933
-1.55764e-16
0.00480933
6.34601e-17
0.00480933
1.95101e-17
0.00480933
5.67128e-17
0.00480933
-6.11182e-17
0.00480933
1.04521e-16
0.00480933
7.35273e-17
0.00480933
4.73349e-17
0.00480933
4.3297e-17
0.00480933
-4.9831e-17
0.00480933
-3.07029e-17
0.00480933
6.27525e-17
0.00480933
1.29878e-16
0.00480933
1.12514e-16
0.00480933
9.97124e-17
0.00480933
1.98527e-16
0.00480933
3.23626e-16
0.00480933
3.68823e-16
0.00480933
4.07563e-16
0.00480933
5.31675e-16
0.00480933
5.05641e-16
0.00480933
6.03563e-16
0.00480933
6.5535e-16
0.00480933
6.2225e-16
0.00480933
5.771e-16
0.00480933
7.57197e-16
0.00480933
1.57243e-15
0.00480933
2.13458e-15
0.00480933
2.08901e-15
0.00480933
2.02418e-15
0.00480933
2.46606e-15
0.00480933
3.2776e-15
0.00480933
3.36962e-15
0.00480933
3.77196e-15
0.00480933
4.65536e-15
0.00480933
4.49374e-15
0.00480933
4.63309e-15
2.99386e-15
0.00515508
0.00305014
0.00510278
0.000505686
0.00506522
8.61048e-05
0.00507007
3.39436e-05
0.0050696
-3.40933e-05
0.0050715
1.56912e-05
0.00507121
-1.32064e-05
0.00507152
7.99056e-06
0.00507134
-5.13432e-06
0.00507144
3.32563e-06
0.00507137
-2.0979e-06
0.00507141
1.34058e-06
0.00507139
-8.52386e-07
0.0050714
5.41736e-07
0.00507139
-3.4465e-07
0.0050714
2.1906e-07
0.00507139
-1.39285e-07
0.0050714
8.85462e-08
0.00507139
-5.62942e-08
0.0050714
3.57867e-08
0.0050714
-2.2752e-08
0.0050714
1.44634e-08
0.0050714
-9.19537e-09
0.0050714
5.84547e-09
0.0050714
-3.71636e-09
0.0050714
2.36248e-09
0.0050714
-1.50199e-09
0.0050714
9.5481e-10
0.0050714
-6.07036e-10
0.0050714
3.85891e-10
0.0050714
-2.45337e-10
0.0050714
1.55961e-10
0.0050714
-9.91535e-11
0.0050714
6.3033e-11
0.0050714
-4.00728e-11
0.0050714
2.54758e-11
0.0050714
-1.6195e-11
0.0050714
1.02967e-11
0.0050714
-6.54488e-12
0.0050714
4.16171e-12
0.0050714
-2.64505e-12
0.0050714
1.6819e-12
0.0050714
-1.06911e-12
0.0050714
6.79676e-13
0.0050714
-4.32152e-13
0.0050714
2.74685e-13
0.0050714
-1.74701e-13
0.0050714
1.11083e-13
0.0050714
-7.06342e-14
0.0050714
4.4881e-14
0.0050714
-2.84976e-14
0.0050714
1.8131e-14
0.0050714
-1.15204e-14
0.0050714
7.25603e-15
0.0050714
-4.53977e-15
0.0050714
3.05735e-15
0.0050714
-1.87751e-15
0.0050714
1.28738e-15
0.0050714
-6.98056e-16
0.0050714
4.97137e-16
0.0050714
-3.40795e-16
0.0050714
2.32705e-16
0.0050714
-1.70793e-16
0.0050714
4.68706e-17
0.0050714
1.71355e-17
0.0050714
8.0383e-17
0.0050714
-1.01133e-16
0.0050714
7.14327e-17
0.0050714
5.37829e-17
0.0050714
7.56012e-17
0.0050714
2.02019e-17
0.0050714
-2.17344e-17
0.0050714
-3.15306e-17
0.0050714
1.22669e-16
0.0050714
1.31799e-16
0.0050714
1.40185e-16
0.0050714
1.74551e-16
0.0050714
3.15079e-16
0.0050714
4.70534e-16
0.0050714
5.54401e-16
0.0050714
6.81229e-16
0.0050714
8.43882e-16
0.0050714
8.2035e-16
0.0050714
9.22676e-16
0.0050714
9.6854e-16
0.0050714
9.35822e-16
0.0050714
8.78722e-16
0.0050714
1.10897e-15
0.0050714
2.2572e-15
0.0050714
3.13891e-15
0.0050714
3.18292e-15
0.0050714
3.14403e-15
0.0050714
3.74322e-15
0.0050714
4.93898e-15
0.0050714
5.21258e-15
0.0050714
5.71846e-15
0.0050714
6.98949e-15
0.0050714
6.87531e-15
0.0050714
7.04686e-15
4.42103e-15
0.00522605
0.00282409
0.00519713
0.000534603
0.00516645
0.000116786
0.00517127
2.912e-05
0.00516998
-3.28032e-05
0.00517219
1.34876e-05
0.0051716
-1.26183e-05
0.00517209
7.50047e-06
0.00517179
-4.84071e-06
0.00517197
3.15471e-06
0.00517185
-1.98486e-06
0.00517192
1.27065e-06
0.00517188
-8.07935e-07
0.00517191
5.13446e-07
0.00517189
-3.26731e-07
0.0051719
2.07657e-07
0.00517189
-1.32041e-07
0.0051719
8.39409e-08
0.00517189
-5.3367e-08
0.0051719
3.39255e-08
0.00517189
-2.15691e-08
0.0051719
1.37112e-08
0.00517189
-8.7173e-09
0.0051719
5.54147e-09
0.00517189
-3.52314e-09
0.0051719
2.23962e-09
0.0051719
-1.4239e-09
0.0051719
9.05154e-10
0.0051719
-5.75476e-10
0.0051719
3.65823e-10
0.0051719
-2.32581e-10
0.0051719
1.4785e-10
0.0051719
-9.39981e-11
0.0051719
5.97553e-11
0.0051719
-3.79889e-11
0.0051719
2.41513e-11
0.0051719
-1.53526e-11
0.0051719
9.76156e-12
0.0051719
-6.20421e-12
0.0051719
3.94563e-12
0.0051719
-2.50734e-12
0.0051719
1.59448e-12
0.0051719
-1.01343e-12
0.0051719
6.44312e-13
0.0051719
-4.0959e-13
0.0051719
2.60498e-13
0.0051719
-1.65523e-13
0.0051719
1.05352e-13
0.0051719
-6.69556e-14
0.0051719
4.25615e-14
0.0051719
-2.69964e-14
0.0051719
1.71549e-14
0.0051719
-1.09114e-14
0.0051719
6.89051e-15
0.0051719
-4.34921e-15
0.0051719
2.94726e-15
0.0051719
-1.75739e-15
0.0051719
1.19961e-15
0.0051719
-6.69043e-16
0.0051719
4.52335e-16
0.0051719
-3.32146e-16
0.0051719
3.21207e-16
0.0051719
-1.39493e-16
0.0051719
8.04019e-17
0.0051719
9.61991e-18
0.0051719
4.77854e-17
0.0051719
-6.73495e-17
0.0051719
6.08535e-17
0.0051719
7.1951e-17
0.0051719
7.16599e-17
0.0051719
4.80518e-17
0.0051719
-3.08675e-17
0.0051719
-4.02836e-17
0.0051719
1.76923e-16
0.0051719
1.85328e-16
0.0051719
2.40594e-16
0.0051719
2.90613e-16
0.0051719
4.79815e-16
0.0051719
5.70193e-16
0.0051719
7.54006e-16
0.0051719
8.96411e-16
0.0051719
1.1326e-15
0.0051719
1.16554e-15
0.0051719
1.26963e-15
0.0051719
1.27561e-15
0.0051719
1.24229e-15
0.0051719
1.19304e-15
0.0051719
1.43367e-15
0.0051719
2.82416e-15
0.0051719
4.05374e-15
0.0051719
4.3114e-15
0.0051719
4.28568e-15
0.0051719
4.90195e-15
0.0051719
6.52355e-15
0.0051719
7.11401e-15
0.0051719
7.5479e-15
0.0051719
9.15915e-15
0.0051719
9.29241e-15
0.0051719
9.37586e-15
5.69443e-15
0.00524139
0.0025827
0.00522918
0.000546819
0.00520608
0.000139887
0.00521027
2.49257e-05
0.00520864
-3.11727e-05
0.0052108
1.13296e-05
0.00521011
-1.19253e-05
0.00521065
6.95755e-06
0.00521032
-4.51156e-06
0.00521052
2.95903e-06
0.00521039
-1.8566e-06
0.00521047
1.19083e-06
0.00521042
-7.57182e-07
0.00521045
4.8116e-07
0.00521043
-3.06261e-07
0.00521044
1.94634e-07
0.00521043
-1.23766e-07
0.00521044
7.86808e-08
0.00521043
-5.0023e-08
0.00521044
3.17997e-08
0.00521044
-2.02177e-08
0.00521044
1.2852e-08
0.00521044
-8.17114e-09
0.00521044
5.19424e-09
0.00521044
-3.30241e-09
0.00521044
2.09928e-09
0.00521044
-1.33469e-09
0.00521044
8.48438e-10
0.00521044
-5.39421e-10
0.00521044
3.42901e-10
0.00521044
-2.1801e-10
0.00521044
1.38586e-10
0.00521044
-8.81086e-11
0.00521044
5.60116e-11
0.00521044
-3.56084e-11
0.00521044
2.26385e-11
0.00521044
-1.43902e-11
0.00521044
9.15045e-12
0.00521044
-5.81503e-12
0.00521044
3.69879e-12
0.00521044
-2.34994e-12
0.00521044
1.49469e-12
0.00521044
-9.49889e-13
0.00521044
6.03952e-13
0.00521044
-3.83945e-13
0.00521044
2.44168e-13
0.00521044
-1.55268e-13
0.00521044
9.87535e-14
0.00521044
-6.28109e-14
0.00521044
3.9914e-14
0.00521044
-2.52839e-14
0.00521044
1.61202e-14
0.00521044
-1.02372e-14
0.00521044
6.50451e-15
0.00521044
-4.05339e-15
0.00521044
2.74841e-15
0.00521044
-1.59361e-15
0.00521044
1.16272e-15
0.00521044
-6.35773e-16
0.00521044
3.8593e-16
0.00521044
-2.86533e-16
0.00521044
3.13022e-16
0.00521044
-1.02369e-16
0.00521044
6.91558e-17
0.00521044
2.61422e-17
0.00521044
7.35114e-17
0.00521044
-7.08596e-17
0.00521044
1.36784e-18
0.00521044
6.78374e-17
0.00521044
3.0255e-17
0.00521044
3.65772e-17
0.00521044
-1.22504e-17
0.00521044
-3.58232e-17
0.00521044
1.57556e-16
0.00521044
1.94083e-16
0.00521044
3.2016e-16
0.00521044
3.58016e-16
0.00521044
6.02738e-16
0.00521044
6.48839e-16
0.00521044
9.49211e-16
0.00521044
1.12742e-15
0.00521044
1.44503e-15
0.00521044
1.53465e-15
0.00521044
1.59403e-15
0.00521044
1.52401e-15
0.00521044
1.56683e-15
0.00521044
1.48123e-15
0.00521044
1.80401e-15
0.00521044
3.26905e-15
0.00521044
4.81956e-15
0.00521044
5.44374e-15
0.00521044
5.39271e-15
0.00521044
5.99653e-15
0.00521044
7.94707e-15
0.00521044
8.93417e-15
0.00521044
9.37553e-15
0.00521044
1.108e-14
0.00521044
1.15303e-14
0.00521044
1.1663e-14
6.91659e-15
0.00523787
0.00234483
0.00523813
0.000546564
0.00522196
0.000156058
0.00522544
2.1442e-05
0.00522362
-2.93556e-05
0.00522562
9.33636e-06
0.00522488
-1.11866e-05
0.00522543
6.40323e-06
0.00522509
-4.17253e-06
0.0052253
2.75452e-06
0.00522517
-1.72337e-06
0.00522525
1.10758e-06
0.0052252
-7.04238e-07
0.00522523
4.47488e-07
0.00522521
-2.84899e-07
0.00522522
1.81047e-07
0.00522521
-1.15131e-07
0.00522522
7.3192e-08
0.00522522
-4.65335e-08
0.00522522
2.95814e-08
0.00522522
-1.88075e-08
0.00522522
1.19555e-08
0.00522522
-7.60119e-09
0.00522522
4.83191e-09
0.00522522
-3.07206e-09
0.00522522
1.95285e-09
0.00522522
-1.24159e-09
0.00522522
7.89254e-10
0.00522522
-5.01795e-10
0.00522522
3.18981e-10
0.00522522
-2.02803e-10
0.00522522
1.28919e-10
0.00522522
-8.19624e-11
0.00522522
5.21049e-11
0.00522522
-3.31242e-11
0.00522522
2.10598e-11
0.00522522
-1.3386e-11
0.00522522
8.5127e-12
0.00522522
-5.40887e-12
0.00522522
3.44112e-12
0.00522522
-2.18572e-12
0.00522522
1.39047e-12
0.00522522
-8.8366e-13
0.00522522
5.61811e-13
0.00522522
-3.5716e-13
0.00522522
2.27144e-13
0.00522522
-1.44393e-13
0.00522522
9.18267e-14
0.00522522
-5.83902e-14
0.00522522
3.71219e-14
0.00522522
-2.34818e-14
0.00522522
1.49514e-14
0.00522522
-9.48888e-15
0.00522522
6.0745e-15
0.00522522
-3.81187e-15
0.00522522
2.58165e-15
0.00522522
-1.45147e-15
0.00522522
1.01478e-15
0.00522522
-5.96957e-16
0.00522522
3.84415e-16
0.00522522
-2.65948e-16
0.00522522
3.12241e-16
0.00522522
-8.66745e-17
0.00522522
8.09992e-17
0.00522522
6.9013e-17
0.00522522
6.7914e-17
0.00522522
-6.65155e-17
0.00522522
1.87101e-18
0.00522522
1.19459e-17
0.00522522
3.56827e-17
0.00522522
6.70623e-17
0.00522522
1.21359e-19
0.00522522
-3.26237e-17
0.00522522
1.74934e-16
0.00522522
2.55183e-16
0.00522522
3.58712e-16
0.00522522
4.22972e-16
0.00522522
7.24019e-16
0.00522522
7.88482e-16
0.00522522
1.11954e-15
0.00522522
1.36082e-15
0.00522522
1.76858e-15
0.00522522
1.8117e-15
0.00522522
1.89701e-15
0.00522522
1.84354e-15
0.00522522
1.90824e-15
0.00522522
1.8086e-15
0.00522522
2.09598e-15
0.00522522
3.63426e-15
0.00522522
5.5484e-15
0.00522522
6.54185e-15
0.00522522
6.52552e-15
0.00522522
7.02815e-15
0.00522522
9.18632e-15
0.00522522
1.05823e-14
0.00522522
1.11748e-14
0.00522522
1.29302e-14
0.00522522
1.34513e-14
0.00522522
1.38025e-14
8.15086e-15
0.0052281
0.00211673
0.00523848
0.000536183
0.0052286
0.000165936
0.00523147
1.85729e-05
0.00522953
-2.74164e-05
0.00523131
7.55129e-06
0.00523055
-1.0422e-05
0.0052311
5.85263e-06
0.00523076
-3.83286e-06
0.00523097
2.54675e-06
0.00523083
-1.58884e-06
0.00523092
1.02316e-06
0.00523086
-6.50552e-07
0.0052309
4.1335e-07
0.00523088
-2.63229e-07
0.00523089
1.67267e-07
0.00523088
-1.06372e-07
0.00523089
6.76245e-08
0.00523088
-4.29937e-08
0.00523089
2.73313e-08
0.00523088
-1.73769e-08
0.00523089
1.10461e-08
0.00523088
-7.02302e-09
0.00523089
4.46437e-09
0.00523088
-2.83839e-09
0.00523089
1.80431e-09
0.00523088
-1.14715e-09
0.00523089
7.29221e-10
0.00523088
-4.63627e-10
0.00523088
2.94718e-10
0.00523088
-1.87377e-10
0.00523088
1.19113e-10
0.00523088
-7.57277e-11
0.00523088
4.81421e-11
0.00523088
-3.06041e-11
0.00523088
1.94586e-11
0.00523088
-1.23672e-11
0.00523088
7.86574e-12
0.00523088
-4.99695e-12
0.00523088
3.17967e-12
0.00523088
-2.01936e-12
0.00523088
1.2847e-12
0.00523088
-8.16402e-13
0.00523088
5.19154e-13
0.00523088
-3.29901e-13
0.00523088
2.0994e-13
0.00523088
-1.33366e-13
0.00523088
8.47955e-14
0.00523088
-5.39807e-14
0.00523088
3.42269e-14
0.00523088
-2.16921e-14
0.00523088
1.37759e-14
0.00523088
-8.79616e-15
0.00523088
5.66234e-15
0.00523088
-3.45713e-15
0.00523088
2.40667e-15
0.00523088
-1.37043e-15
0.00523088
9.3565e-16
0.00523088
-5.04965e-16
0.00523088
3.16452e-16
0.00523088
-3.04841e-16
0.00523088
2.93094e-16
0.00523088
-1.17938e-16
0.00523088
1.14153e-16
0.00523088
4.27698e-17
0.00523088
9.44299e-17
0.00523088
-2.5913e-17
0.00523088
7.53155e-18
0.00523088
2.27204e-17
0.00523088
2.83781e-17
0.00523088
9.09762e-17
0.00523088
3.8688e-17
0.00523088
-5.60066e-17
0.00523088
1.77967e-16
0.00523088
3.10309e-16
0.00523088
4.39745e-16
0.00523088
4.5124e-16
0.00523088
8.39919e-16
0.00523088
9.13483e-16
0.00523088
1.2538e-15
0.00523088
1.54223e-15
0.00523088
2.07942e-15
0.00523088
2.09575e-15
0.00523088
2.19634e-15
0.00523088
2.16561e-15
0.00523088
2.22109e-15
0.00523088
2.14653e-15
0.00523088
2.38113e-15
0.00523088
3.96233e-15
0.00523088
6.12149e-15
0.00523088
7.51373e-15
0.00523088
7.65922e-15
0.00523088
8.03568e-15
0.00523088
1.03013e-14
0.00523088
1.20475e-14
0.00523088
1.29262e-14
0.00523088
1.46689e-14
0.00523088
1.51685e-14
0.00523088
1.57821e-14
9.34538e-15
0.00521702
0.00189971
0.00523588
0.000517322
0.0052316
0.000170219
0.00523398
1.61899e-05
0.00523195
-2.53823e-05
0.00523351
5.98654e-06
0.00523273
-9.63726e-06
0.00523327
5.31094e-06
0.00523293
-3.49556e-06
0.00523314
2.33748e-06
0.00523301
-1.45417e-06
0.00523309
9.38295e-07
0.00523304
-5.96582e-07
0.00523307
3.79036e-07
0.00523305
-2.41436e-07
0.00523306
1.5341e-07
0.00523306
-9.75635e-08
0.00523306
6.20253e-08
0.00523306
-3.94338e-08
0.00523306
2.50684e-08
0.00523306
-1.59382e-08
0.00523306
1.01316e-08
0.00523306
-6.44157e-09
0.00523306
4.09475e-09
0.00523306
-2.60339e-09
0.00523306
1.65492e-09
0.00523306
-1.05217e-09
0.00523306
6.68846e-10
0.00523306
-4.25242e-10
0.00523306
2.70318e-10
0.00523306
-1.71863e-10
0.00523306
1.09252e-10
0.00523306
-6.94575e-11
0.00523306
4.41567e-11
0.00523306
-2.80697e-11
0.00523306
1.78481e-11
0.00523306
-1.13427e-11
0.00523306
7.2152e-12
0.00523306
-4.58264e-12
0.00523306
2.91674e-12
0.00523306
-1.85198e-12
0.00523306
1.17836e-12
0.00523306
-7.4873e-13
0.00523306
4.76169e-13
0.00523306
-3.02648e-13
0.00523306
1.92549e-13
0.00523306
-1.2231e-13
0.00523306
7.78369e-14
0.00523306
-4.95511e-14
0.00523306
3.13747e-14
0.00523306
-1.98794e-14
0.00523306
1.26447e-14
0.00523306
-8.08043e-15
0.00523306
5.20245e-15
0.00523306
-3.05169e-15
0.00523306
2.19981e-15
0.00523306
-1.30756e-15
0.00523306
8.78278e-16
0.00523306
-4.62431e-16
0.00523306
2.38394e-16
0.00523306
-2.57004e-16
0.00523306
2.6202e-16
0.00523306
-1.54456e-16
0.00523306
7.03725e-17
0.00523306
6.85366e-17
0.00523306
5.38601e-17
0.00523306
-7.9777e-17
0.00523306
4.08048e-17
0.00523306
-3.75097e-17
0.00523306
3.12337e-17
0.00523306
1.11212e-16
0.00523306
4.44937e-17
0.00523306
-6.74083e-17
0.00523306
1.60171e-16
0.00523306
3.17461e-16
0.00523306
4.73626e-16
0.00523306
5.12853e-16
0.00523306
9.5427e-16
0.00523306
1.00576e-15
0.00523306
1.39407e-15
0.00523306
1.66937e-15
0.00523306
2.3686e-15
0.00523306
2.35578e-15
0.00523306
2.48656e-15
0.00523306
2.4942e-15
0.00523306
2.52685e-15
0.00523306
2.44627e-15
0.00523306
2.67741e-15
0.00523306
4.27718e-15
0.00523306
6.49949e-15
0.00523306
8.34789e-15
0.00523306
8.76881e-15
0.00523306
9.03648e-15
0.00523306
1.13101e-14
0.00523306
1.32727e-14
0.00523306
1.45109e-14
0.00523306
1.63397e-14
0.00523306
1.6703e-14
0.00523306
1.75862e-14
1.05123e-14
0.00520628
0.00169343
0.00523242
0.000491175
0.00523311
0.000169527
0.00523514
1.41672e-05
0.00523303
-2.32713e-05
0.00523437
4.64139e-06
0.00523357
-8.83405e-06
0.0052341
4.78017e-06
0.00523376
-3.16176e-06
0.00523397
2.12733e-06
0.00523384
-1.31981e-06
0.00523393
8.53244e-07
0.00523387
-5.42494e-07
0.00523391
3.44652e-07
0.00523388
-2.19586e-07
0.0052339
1.39518e-07
0.00523389
-8.87324e-08
0.00523389
5.64117e-08
0.00523389
-3.58647e-08
0.00523389
2.27997e-08
0.00523389
-1.44958e-08
0.00523389
9.21464e-09
0.00523389
-5.8586e-09
0.00523389
3.72417e-09
0.00523389
-2.36778e-09
0.00523389
1.50515e-09
0.00523389
-9.56952e-10
0.00523389
6.08315e-10
0.00523389
-3.86758e-10
0.00523389
2.45854e-10
0.00523389
-1.5631e-10
0.00523389
9.93649e-11
0.00523389
-6.31711e-11
0.00523389
4.01611e-11
0.00523389
-2.55287e-11
0.00523389
1.62335e-11
0.00523389
-1.03155e-11
0.00523389
6.56291e-12
0.00523389
-4.16742e-12
0.00523389
2.65296e-12
0.00523389
-1.68428e-12
0.00523389
1.07181e-12
0.00523389
-6.80981e-13
0.00523389
4.33069e-13
0.00523389
-2.75186e-13
0.00523389
1.75192e-13
0.00523389
-1.11197e-13
0.00523389
7.07774e-14
0.00523389
-4.50356e-14
0.00523389
2.85177e-14
0.00523389
-1.80865e-14
0.00523389
1.14948e-14
0.00523389
-7.34522e-15
0.00523389
4.76143e-15
0.00523389
-2.79217e-15
0.00523389
1.96083e-15
0.00523389
-1.14391e-15
0.00523389
8.13373e-16
0.00523389
-3.83117e-16
0.00523389
1.27523e-16
0.00523389
-1.91773e-16
0.00523389
2.91116e-16
0.00523389
-1.76231e-16
0.00523389
6.62774e-17
0.00523389
8.01941e-17
0.00523389
1.51404e-17
0.00523389
-7.21415e-17
0.00523389
2.72105e-17
0.00523389
-1.32063e-17
0.00523389
3.45602e-18
0.00523389
9.22748e-17
0.00523389
4.34031e-17
0.00523389
-4.76742e-17
0.00523389
1.92502e-16
0.00523389
3.39626e-16
0.00523389
4.91994e-16
0.00523389
5.63263e-16
0.00523389
1.0746e-15
0.00523389
1.11696e-15
0.00523389
1.53262e-15
0.00523389
1.78946e-15
0.00523389
2.55191e-15
0.00523389
2.59542e-15
0.00523389
2.82401e-15
0.00523389
2.8326e-15
0.00523389
2.84426e-15
0.00523389
2.73953e-15
0.00523389
2.94346e-15
0.00523389
4.5623e-15
0.00523389
6.83311e-15
0.00523389
8.97921e-15
0.00523389
9.76498e-15
0.00523389
1.00059e-14
0.00523389
1.22906e-14
0.00523389
1.43186e-14
0.00523389
1.58225e-14
0.00523389
1.78826e-14
0.00523389
1.81658e-14
0.00523389
1.90965e-14
1.14034e-14
0.00519645
0.00149698
0.00522891
0.000458714
0.00523399
0.000164447
0.00523576
1.24022e-05
0.00523358
-2.10958e-05
0.00523471
3.50806e-06
0.00523389
-8.0129e-06
0.00523441
4.26091e-06
0.00523408
-2.8318e-06
0.00523429
1.9165e-06
0.00523416
-1.1859e-06
0.00523425
7.68091e-07
0.00523419
-4.88343e-07
0.00523423
3.10233e-07
0.0052342
-1.97702e-07
0.00523422
1.25607e-07
0.00523421
-7.98877e-08
0.00523421
5.07893e-08
0.00523421
-3.22901e-08
0.00523421
2.05274e-08
0.00523421
-1.30511e-08
0.00523421
8.29627e-09
0.00523421
-5.27471e-09
0.00523421
3.35301e-09
0.00523421
-2.1318e-09
0.00523421
1.35514e-09
0.00523421
-8.61578e-10
0.00523421
5.47689e-10
0.00523421
-3.48212e-10
0.00523421
2.21351e-10
0.00523421
-1.40731e-10
0.00523421
8.94623e-11
0.00523421
-5.68747e-11
0.00523421
3.61591e-11
0.00523421
-2.29838e-11
0.00523421
1.46164e-11
0.00523421
-9.28672e-12
0.00523421
5.9095e-12
0.00523421
-3.75152e-12
0.00523421
2.38874e-12
0.00523421
-1.51617e-12
0.00523421
9.65003e-13
0.00523421
-6.13037e-13
0.00523421
3.89917e-13
0.00523421
-2.47732e-13
0.00523421
1.57787e-13
0.00523421
-1.00176e-13
0.00523421
6.37183e-14
0.00523421
-4.04811e-14
0.00523421
2.57411e-14
0.00523421
-1.63037e-14
0.00523421
1.03587e-14
0.00523421
-6.59456e-15
0.00523421
4.36777e-15
0.00523421
-2.47545e-15
0.00523421
1.71017e-15
0.00523421
-1.03235e-15
0.00523421
7.37571e-16
0.00523421
-3.30516e-16
0.00523421
1.20617e-16
0.00523421
-1.90625e-16
0.00523421
2.38591e-16
0.00523421
-1.44245e-16
0.00523421
5.19577e-17
0.00523421
6.43973e-17
0.00523421
-2.18435e-17
0.00523421
-6.00154e-17
0.00523421
4.64951e-17
0.00523421
3.78401e-17
0.00523421
1.73212e-17
0.00523421
8.58555e-17
0.00523421
4.03966e-17
0.00523421
-2.0881e-17
0.00523421
1.58164e-16
0.00523421
3.29862e-16
0.00523421
5.39053e-16
0.00523421
6.11495e-16
0.00523421
1.16157e-15
0.00523421
1.22575e-15
0.00523421
1.67786e-15
0.00523421
1.88589e-15
0.00523421
2.75197e-15
0.00523421
2.79847e-15
0.00523421
3.15339e-15
0.00523421
3.18801e-15
0.00523421
3.17068e-15
0.00523421
3.01636e-15
0.00523421
3.2281e-15
0.00523421
4.79994e-15
0.00523421
7.11424e-15
0.00523421
9.39987e-15
0.00523421
1.05768e-14
0.00523421
1.09744e-14
0.00523421
1.31868e-14
0.00523421
1.52235e-14
0.00523421
1.68505e-14
0.00523421
1.92055e-14
0.00523421
1.95088e-14
0.00523421
2.04353e-14
1.21704e-14
0.00518769
0.0013093
0.00522563
0.000420768
0.00523457
0.00015551
0.00523616
1.08151e-05
0.00523393
-1.88668e-05
0.00523486
2.57438e-06
0.00523402
-7.17434e-06
0.00523453
3.75314e-06
0.0052342
-2.5057e-06
0.00523442
1.7051e-06
0.00523428
-1.05249e-06
0.00523437
6.82874e-07
0.00523431
-4.34153e-07
0.00523435
2.75794e-07
0.00523433
-1.75792e-07
0.00523434
1.11681e-07
0.00523433
-7.10332e-08
0.00523434
4.51605e-08
0.00523433
-2.87114e-08
0.00523434
1.82524e-08
0.00523433
-1.16047e-08
0.00523434
7.37684e-09
0.00523433
-4.69015e-09
0.00523433
2.98142e-09
0.00523433
-1.89555e-09
0.00523433
1.20496e-09
0.00523433
-7.66095e-10
0.00523433
4.86992e-10
0.00523433
-3.09622e-10
0.00523433
1.9682e-10
0.00523433
-1.25134e-10
0.00523433
7.95483e-11
0.00523433
-5.0571e-11
0.00523433
3.21526e-11
0.00523433
-2.04359e-11
0.00523433
1.29973e-11
0.00523433
-8.25672e-12
0.00523433
5.25516e-12
0.00523433
-3.33536e-12
0.00523433
2.12418e-12
0.00523433
-1.3481e-12
0.00523433
8.58219e-13
0.00523433
-5.45062e-13
0.00523433
3.46731e-13
0.00523433
-2.20251e-13
0.00523433
1.40304e-13
0.00523433
-8.90942e-14
0.00523433
5.6733e-14
0.00523433
-3.58685e-14
0.00523433
2.29002e-14
0.00523433
-1.45077e-14
0.00523433
9.20735e-15
0.00523433
-5.85424e-15
0.00523433
3.89761e-15
0.00523433
-2.21111e-15
0.00523433
1.51443e-15
0.00523433
-9.18039e-16
0.00523433
7.06388e-16
0.00523433
-2.31011e-16
0.00523433
1.3341e-16
0.00523433
-1.86085e-16
0.00523433
1.81172e-16
0.00523433
-1.59144e-16
0.00523433
2.03886e-17
0.00523433
5.19791e-17
0.00523433
4.71637e-18
0.00523433
-5.3864e-17
0.00523433
9.76947e-18
0.00523433
3.50014e-17
0.00523433
5.9436e-18
0.00523433
6.14945e-17
0.00523433
-9.84818e-19
0.00523433
-1.84145e-17
0.00523433
2.34169e-16
0.00523433
3.66419e-16
0.00523433
5.54229e-16
0.00523433
6.35666e-16
0.00523433
1.21436e-15
0.00523433
1.28787e-15
0.00523433
1.81187e-15
0.00523433
2.0213e-15
0.00523433
2.88832e-15
0.00523433
2.94267e-15
0.00523433
3.48828e-15
0.00523433
3.52333e-15
0.00523433
3.44744e-15
0.00523433
3.3137e-15
0.00523433
3.49282e-15
0.00523433
5.04685e-15
0.00523433
7.31617e-15
0.00523433
9.60169e-15
0.00523433
1.11157e-14
0.00523433
1.18391e-14
0.00523433
1.40599e-14
0.00523433
1.60457e-14
0.00523433
1.76661e-14
0.00523433
2.01988e-14
0.00523433
2.06e-14
0.00523433
2.16425e-14
1.28673e-14
0.00518
0.00112929
0.00522269
0.00037808
0.00523499
0.000143214
0.00523646
9.34639e-06
0.00523418
-1.65931e-05
0.00523493
1.82488e-06
0.00523408
-6.31911e-06
0.00523457
3.25645e-06
0.00523425
-2.18331e-06
0.00523446
1.49318e-06
0.00523433
-9.19594e-07
0.00523441
5.97606e-07
0.00523436
-3.79934e-07
0.0052344
2.4134e-07
0.00523437
-1.53861e-07
0.00523439
9.77442e-08
0.00523438
-6.21707e-08
0.00523438
3.95264e-08
0.00523438
-2.51294e-08
0.00523438
1.59754e-08
0.00523438
-1.0157e-08
0.00523438
6.45655e-09
0.00523438
-4.10504e-09
0.00523438
2.60947e-09
0.00523438
-1.65907e-09
0.00523438
1.05464e-09
0.00523438
-6.70521e-10
0.00523438
4.26238e-10
0.00523438
-2.70995e-10
0.00523438
1.72267e-10
0.00523438
-1.09523e-10
0.00523438
6.96249e-11
0.00523438
-4.42614e-11
0.00523438
2.81422e-11
0.00523438
-1.78856e-11
0.00523438
1.13767e-11
0.00523438
-7.22584e-12
0.00523438
4.60014e-12
0.00523438
-2.91881e-12
0.00523438
1.85938e-12
0.00523438
-1.17976e-12
0.00523438
7.51207e-13
0.00523438
-4.7712e-13
0.00523438
3.03518e-13
0.00523438
-1.92808e-13
0.00523438
1.22802e-13
0.00523438
-7.79676e-14
0.00523438
4.96065e-14
0.00523438
-3.14163e-14
0.00523438
2.00314e-14
0.00523438
-1.26809e-14
0.00523438
8.04673e-15
0.00523438
-5.10515e-15
0.00523438
3.45408e-15
0.00523438
-1.88824e-15
0.00523438
1.33676e-15
0.00523438
-7.87102e-16
0.00523438
5.63111e-16
0.00523438
-1.0188e-16
0.00523438
8.5848e-17
0.00523438
-9.46853e-17
0.00523438
2.08724e-16
0.00523438
-1.54134e-16
0.00523438
6.70523e-17
0.00523438
2.03833e-17
0.00523438
2.10954e-17
0.00523438
-3.19469e-17
0.00523438
-2.32722e-17
0.00523438