/*--------------------------------*- C++ -*----------------------------------*\
| =========                 |                                                 |
| \\      /  F ield         | foam-extend: Open Source CFD                    |
|  \\    /   O peration     | Version:     5.0                                |
|   \\  /    A nd           | Web:         http://www.foam-extend.org         |
|    \\/     M anipulation  |                                                 |
\*---------------------------------------------------------------------------*/
FoamFile
{
    version     2.0;
    format      ascii;
    class       volVectorField;
    location    "1";
    object      U;
}
// * * * * * * * * * * * * * * * * * * * * * * * * * * * * * * * * * * * * * //

dimensions      [0 1 -1 0 0 0 0];

internalField   nonuniform List<vector> 
4000
(
(0.43589 0.0800088 0)
(0.533734 0.00632471 0)
(0.436897 -0.00111936 0)
(0.487621 0.00116741 0)
(0.456483 -0.000798519 0)
(0.476448 0.000488286 0)
(0.463961 -0.000318392 0)
(0.47191 0.000201662 0)
(0.466864 -0.000128165 0)
(0.470068 8.16622e-05 0)
(0.46803 -5.18647e-05 0)
(0.469325 3.29895e-05 0)
(0.468502 -2.09715e-05 0)
(0.469025 1.33328e-05 0)
(0.468693 -8.47585e-06 0)
(0.468904 5.38881e-06 0)
(0.46877 -3.42553e-06 0)
(0.468855 2.17794e-06 0)
(0.468801 -1.38445e-06 0)
(0.468835 8.80227e-07 0)
(0.468813 -5.59534e-07 0)
(0.468827 3.55749e-07 0)
(0.468818 -2.26139e-07 0)
(0.468824 1.43778e-07 0)
(0.46882 -9.13952e-08 0)
(0.468823 5.81085e-08 0)
(0.468821 -3.69379e-08 0)
(0.468822 2.34849e-08 0)
(0.468822 -1.49286e-08 0)
(0.468822 9.49154e-09 0)
(0.468822 -6.03349e-09 0)
(0.468822 3.83606e-09 0)
(0.468822 -2.43847e-09 0)
(0.468822 1.55036e-09 0)
(0.468822 -9.85522e-10 0)
(0.468822 6.26586e-10 0)
(0.468822 -3.98304e-10 0)
(0.468822 2.53237e-10 0)
(0.468822 -1.60978e-10 0)
(0.468822 1.02347e-10 0)
(0.468822 -6.50599e-11 0)
(0.468822 4.13634e-11 0)
(0.468822 -2.62928e-11 0)
(0.468822 1.67169e-11 0)
(0.468822 -1.06274e-11 0)
(0.468822 6.75569e-12 0)
(0.468822 -4.29498e-12 0)
(0.468822 2.73045e-12 0)
(0.468822 -1.73758e-12 0)
(0.468822 1.10306e-12 0)
(0.468822 -7.00147e-13 0)
(0.468822 4.4613e-13 0)
(0.468822 -2.84634e-13 0)
(0.468822 1.78419e-13 0)
(0.468822 -1.13858e-13 0)
(0.468822 7.28871e-14 0)
(0.468822 -4.5807e-14 0)
(0.468822 2.84398e-14 0)
(0.468822 -1.88454e-14 0)
(0.468822 1.08353e-14 0)
(0.468822 -8.15626e-15 0)
(0.468822 5.83783e-15 0)
(0.468822 -4.03828e-15 0)
(0.468822 2.23124e-15 0)
(0.468822 -1.5811e-15 0)
(0.468822 1.09363e-15 0)
(0.468822 -5.28678e-16 0)
(0.468822 5.10416e-16 0)
(0.468822 9.65196e-16 0)
(0.468822 -7.55547e-16 0)
(0.468822 -1.89141e-15 0)
(0.468822 -3.67289e-16 0)
(0.468822 -1.02014e-16 0)
(0.468822 1.34825e-15 0)
(0.468822 -2.16162e-16 0)
(0.468822 -7.7958e-16 0)
(0.468822 -4.89959e-16 0)
(0.468822 1.81233e-16 0)
(0.468822 4.38504e-17 0)
(0.468822 6.05995e-16 0)
(0.468822 -1.20449e-16 0)
(0.468822 -1.54002e-15 0)
(0.468822 -1.0972e-15 0)
(0.468822 4.97792e-16 0)
(0.468822 -1.05758e-17 0)
(0.468822 5.09266e-16 0)
(0.468822 8.45387e-16 0)
(0.468822 1.17645e-15 0)
(0.468822 7.51658e-16 0)
(0.468822 -3.3756e-17 0)
(0.468822 -1.20132e-15 0)
(0.468822 -1.2082e-15 0)
(0.468822 -3.02721e-15 0)
(0.468822 -3.22804e-15 0)
(0.468822 -4.17602e-15 0)
(0.468822 -2.90082e-15 0)
(0.468822 -1.84518e-15 0)
(0.468822 -7.59918e-16 0)
(0.468822 -2.32435e-15 0)
(0.468822 2.73249e-15 0)
(0.740683 0.157357 0)
(0.924546 0.0155539 0)
(0.772369 -0.000880132 0)
(0.856742 0.00218004 0)
(0.804512 -0.0016127 0)
(0.837973 0.000938107 0)
(0.817045 -0.000638876 0)
(0.830375 0.000401411 0)
(0.821915 -0.000255601 0)
(0.827287 0.000163343 0)
(0.823871 -0.000103619 0)
(0.826041 6.59614e-05 0)
(0.824662 -4.19345e-05 0)
(0.825539 2.66581e-05 0)
(0.824981 -1.69496e-05 0)
(0.825336 1.07755e-05 0)
(0.82511 -6.85015e-06 0)
(0.825254 4.35513e-06 0)
(0.825162 -2.76855e-06 0)
(0.82522 1.76015e-06 0)
(0.825184 -1.11893e-06 0)
(0.825207 7.11375e-07 0)
(0.825192 -4.52221e-07 0)
(0.825202 2.87506e-07 0)
(0.825196 -1.82768e-07 0)
(0.825199 1.16197e-07 0)
(0.825197 -7.38665e-08 0)
(0.825198 4.69618e-08 0)
(0.825197 -2.98535e-08 0)
(0.825198 1.89798e-08 0)
(0.825198 -1.20655e-08 0)
(0.825198 7.67081e-09 0)
(0.825198 -4.87632e-09 0)
(0.825198 3.1002e-09 0)
(0.825198 -1.97079e-09 0)
(0.825198 1.25297e-09 0)
(0.825198 -7.96501e-10 0)
(0.825198 5.06393e-10 0)
(0.825198 -3.21915e-10 0)
(0.825198 2.04665e-10 0)
(0.825198 -1.30104e-10 0)
(0.825198 8.27166e-11 0)
(0.825198 -5.25831e-11 0)
(0.825198 3.34286e-11 0)
(0.825198 -2.12516e-11 0)
(0.825198 1.35099e-11 0)
(0.825198 -8.58906e-12 0)
(0.825198 5.46353e-12 0)
(0.825198 -3.473e-12 0)
(0.825198 2.20644e-12 0)
(0.825198 -1.40512e-12 0)
(0.825198 8.92947e-13 0)
(0.825198 -5.65179e-13 0)
(0.825198 3.56749e-13 0)
(0.825198 -2.2625e-13 0)
(0.825198 1.48952e-13 0)
(0.825198 -9.16993e-14 0)
(0.825198 5.93922e-14 0)
(0.825198 -3.682e-14 0)
(0.825198 2.24979e-14 0)
(0.825198 -1.59714e-14 0)
(0.825198 1.09537e-14 0)
(0.825198 -8.09316e-15 0)
(0.825198 2.59033e-15 0)
(0.825198 2.47192e-16 0)
(0.825198 1.72142e-15 0)
(0.825198 -1.72324e-15 0)
(0.825198 1.23426e-15 0)
(0.825198 2.53179e-15 0)
(0.825198 -3.76672e-16 0)
(0.825198 -1.87484e-16 0)
(0.825198 -8.35408e-16 0)
(0.825198 -7.8131e-16 0)
(0.825198 2.72087e-16 0)
(0.825198 1.71221e-15 0)
(0.825198 1.35905e-15 0)
(0.825198 1.21355e-15 0)
(0.825198 9.96502e-16 0)
(0.825198 3.88657e-15 0)
(0.825198 4.33956e-15 0)
(0.825198 6.05284e-15 0)
(0.825198 5.32578e-15 0)
(0.825198 4.08952e-15 0)
(0.825198 6.79766e-15 0)
(0.825198 8.5913e-15 0)
(0.825198 9.66517e-15 0)
(0.825198 7.94196e-15 0)
(0.825198 1.14086e-14 0)
(0.825198 2.32093e-14 0)
(0.825198 2.7905e-14 0)
(0.825198 2.61102e-14 0)
(0.825198 2.36835e-14 0)
(0.825198 2.75249e-14 0)
(0.825198 3.7363e-14 0)
(0.825198 3.67055e-14 0)
(0.825198 4.42569e-14 0)
(0.825198 5.84181e-14 0)
(0.825198 5.43498e-14 0)
(0.825198 5.40706e-14 0)
(0.825198 4.02639e-14 0)
(0.849673 0.160642 0)
(1.07046 0.0209011 0)
(0.902483 0.00144769 0)
(0.997734 0.00202318 0)
(0.938385 -0.0017078 0)
(0.976386 0.000908106 0)
(0.9526 -0.000669724 0)
(0.967751 0.000414811 0)
(0.958135 -0.000265027 0)
(0.964241 0.000170261 0)
(0.960358 -0.000107778 0)
(0.962826 6.87075e-05 0)
(0.961257 -4.36843e-05 0)
(0.962255 2.77671e-05 0)
(0.961621 -1.76592e-05 0)
(0.962024 1.12255e-05 0)
(0.961767 -7.13685e-06 0)
(0.96193 4.53717e-06 0)
(0.961827 -2.88444e-06 0)
(0.961893 1.83373e-06 0)
(0.961851 -1.16577e-06 0)
(0.961877 7.41112e-07 0)
(0.96186 -4.71154e-07 0)
(0.961871 2.99525e-07 0)
(0.961864 -1.9042e-07 0)
(0.961869 1.21055e-07 0)
(0.961866 -7.69591e-08 0)
(0.961868 4.89249e-08 0)
(0.961867 -3.11034e-08 0)
(0.961867 1.97732e-08 0)
(0.961867 -1.25706e-08 0)
(0.961867 7.99147e-09 0)
(0.961867 -5.08047e-09 0)
(0.961867 3.22981e-09 0)
(0.961867 -2.05329e-09 0)
(0.961867 1.30536e-09 0)
(0.961867 -8.29831e-10 0)
(0.961867 5.27574e-10 0)
(0.961867 -3.3538e-10 0)
(0.961867 2.13229e-10 0)
(0.961867 -1.35546e-10 0)
(0.961867 8.61733e-11 0)
(0.961867 -5.47824e-11 0)
(0.961867 3.48262e-11 0)
(0.961867 -2.21381e-11 0)
(0.961867 1.40755e-11 0)
(0.961867 -8.95042e-12 0)
(0.961867 5.69305e-12 0)
(0.961867 -3.61823e-12 0)
(0.961867 2.29876e-12 0)
(0.961867 -1.46214e-12 0)
(0.961867 9.30381e-13 0)
(0.961867 -5.86787e-13 0)
(0.961867 3.70668e-13 0)
(0.961867 -2.33898e-13 0)
(0.961867 1.56332e-13 0)
(0.961867 -9.6422e-14 0)
(0.961867 6.46127e-14 0)
(0.961867 -3.68299e-14 0)
(0.961867 2.35517e-14 0)
(0.961867 -1.64373e-14 0)
(0.961867 1.18392e-14 0)
(0.961867 -8.59397e-15 0)
(0.961867 2.20738e-15 0)
(0.961867 2.03889e-15 0)
(0.961867 1.74595e-15 0)
(0.961867 -2.76924e-15 0)
(0.961867 4.58461e-15 0)
(0.961867 3.98452e-15 0)
(0.961867 2.09076e-15 0)
(0.961867 1.88637e-15 0)
(0.961867 -2.60549e-15 0)
(0.961867 -1.16471e-15 0)
(0.961867 1.09557e-15 0)
(0.961867 6.36422e-15 0)
(0.961867 5.08399e-15 0)
(0.961867 3.49624e-15 0)
(0.961867 6.67063e-15 0)
(0.961867 1.1971e-14 0)
(0.961867 1.26968e-14 0)
(0.961867 1.57591e-14 0)
(0.961867 1.97591e-14 0)
(0.961867 1.75595e-14 0)
(0.961867 2.16077e-14 0)
(0.961867 2.48921e-14 0)
(0.961867 2.42801e-14 0)
(0.961867 2.16538e-14 0)
(0.961867 2.9161e-14 0)
(0.961867 6.11282e-14 0)
(0.961867 8.16728e-14 0)
(0.961867 7.87153e-14 0)
(0.961867 7.45496e-14 0)
(0.961867 9.11423e-14 0)
(0.961867 1.22284e-13 0)
(0.961867 1.24341e-13 0)
(0.961867 1.40155e-13 0)
(0.961867 1.75344e-13 0)
(0.961867 1.6662e-13 0)
(0.961867 1.71364e-13 0)
(0.961867 1.12511e-13 0)
(0.886048 0.158684 0)
(1.12239 0.0243919 0)
(0.953055 0.00342985 0)
(1.05166 0.00183861 0)
(0.989872 -0.00173845 0)
(1.0294 0.000844217 0)
(1.00463 -0.000676123 0)
(1.02041 0.000412665 0)
(1.01039 -0.000264589 0)
(1.01675 0.000170866 0)
(1.01271 -0.000107925 0)
(1.01528 6.89043e-05 0)
(1.01364 -4.38113e-05 0)
(1.01468 2.78455e-05 0)
(1.01402 -1.7713e-05 0)
(1.01444 1.12588e-05 0)
(1.01418 -7.15847e-06 0)
(1.01435 4.55082e-06 0)
(1.01424 -2.8932e-06 0)
(1.01431 1.83925e-06 0)
(1.01426 -1.16932e-06 0)
(1.01429 7.43343e-07 0)
(1.01427 -4.72588e-07 0)
(1.01428 3.00427e-07 0)
(1.01428 -1.90999e-07 0)
(1.01428 1.21419e-07 0)
(1.01428 -7.71933e-08 0)
(1.01428 4.90722e-08 0)
(1.01428 -3.11981e-08 0)
(1.01428 1.98328e-08 0)
(1.01428 -1.26089e-08 0)
(1.01428 8.01555e-09 0)
(1.01428 -5.09592e-09 0)
(1.01428 3.23956e-09 0)
(1.01428 -2.05952e-09 0)
(1.01428 1.30931e-09 0)
(1.01428 -8.3234e-10 0)
(1.01428 5.29183e-10 0)
(1.01428 -3.3638e-10 0)
(1.01428 2.13882e-10 0)
(1.01428 -1.35947e-10 0)
(1.01428 8.64357e-11 0)
(1.01428 -5.4947e-11 0)
(1.01428 3.493e-11 0)
(1.01428 -2.22065e-11 0)
(1.01428 1.41172e-11 0)
(1.01428 -8.97965e-12 0)
(1.01428 5.70949e-12 0)
(1.01428 -3.63083e-12 0)
(1.01428 2.30633e-12 0)
(1.01428 -1.46394e-12 0)
(1.01428 9.32464e-13 0)
(1.01428 -5.90441e-13 0)
(1.01428 3.71728e-13 0)
(1.01428 -2.33659e-13 0)
(1.01428 1.56046e-13 0)
(1.01428 -9.69459e-14 0)
(1.01428 6.62357e-14 0)
(1.01428 -3.54362e-14 0)
(1.01428 2.43859e-14 0)
(1.01428 -1.71516e-14 0)
(1.01428 1.14045e-14 0)
(1.01428 -8.02331e-15 0)
(1.01428 2.05699e-15 0)
(1.01428 6.06008e-16 0)
(1.01428 3.92532e-15 0)
(1.01428 -4.03647e-15 0)
(1.01428 4.47969e-15 0)
(1.01428 3.02126e-15 0)
(1.01428 2.98967e-15 0)
(1.01428 1.40248e-15 0)
(1.01428 -2.03065e-15 0)
(1.01428 -1.90557e-15 0)
(1.01428 5.17969e-15 0)
(1.01428 6.2766e-15 0)
(1.01428 5.82048e-15 0)
(1.01428 5.78112e-15 0)
(1.01428 1.28352e-14 0)
(1.01428 2.03916e-14 0)
(1.01428 2.31446e-14 0)
(1.01428 2.6732e-14 0)
(1.01428 3.39288e-14 0)
(1.01428 3.28312e-14 0)
(1.01428 3.80547e-14 0)
(1.01428 4.04694e-14 0)
(1.01428 3.88123e-14 0)
(1.01428 3.58827e-14 0)
(1.01428 4.69057e-14 0)
(1.01428 9.66352e-14 0)
(1.01428 1.32306e-13 0)
(1.01428 1.30966e-13 0)
(1.01428 1.28128e-13 0)
(1.01428 1.55984e-13 0)
(1.01428 2.0565e-13 0)
(1.01428 2.13142e-13 0)
(1.01428 2.37952e-13 0)
(1.01428 2.91147e-13 0)
(1.01428 2.82906e-13 0)
(1.01428 2.92465e-13 0)
(1.01428 1.8701e-13 0)
(0.897091 0.146914 0)
(1.14008 0.0262193 0)
(0.9729 0.00517209 0)
(1.07233 0.00156546 0)
(1.0097 -0.00167568 0)
(1.04972 0.000728246 0)
(1.02459 -0.000646472 0)
(1.0406 0.000387653 0)
(1.03043 -0.00024964 0)
(1.03689 0.000162201 0)
(1.03278 -0.000102185 0)
(1.03539 6.53572e-05 0)
(1.03373 -4.15569e-05 0)
(1.03479 2.64105e-05 0)
(1.03412 -1.68043e-05 0)
(1.03454 1.06804e-05 0)
(1.03427 -6.79113e-06 0)
(1.03445 4.31725e-06 0)
(1.03434 -2.74476e-06 0)
(1.03441 1.74485e-06 0)
(1.03436 -1.10933e-06 0)
(1.03439 7.05193e-07 0)
(1.03437 -4.48345e-07 0)
(1.03438 2.85008e-07 0)
(1.03438 -1.81201e-07 0)
(1.03438 1.15188e-07 0)
(1.03438 -7.32333e-08 0)
(1.03438 4.65538e-08 0)
(1.03438 -2.95977e-08 0)
(1.03438 1.8815e-08 0)
(1.03438 -1.1962e-08 0)
(1.03438 7.6042e-09 0)
(1.03438 -4.83448e-09 0)
(1.03438 3.07332e-09 0)
(1.03438 -1.95384e-09 0)
(1.03438 1.24214e-09 0)
(1.03438 -7.8962e-10 0)
(1.03438 5.02045e-10 0)
(1.03438 -3.19104e-10 0)
(1.03438 2.02921e-10 0)
(1.03438 -1.28961e-10 0)
(1.03438 8.20072e-11 0)
(1.03438 -5.21253e-11 0)
(1.03438 3.31389e-11 0)
(1.03438 -2.10691e-11 0)
(1.03438 1.3395e-11 0)
(1.03438 -8.51478e-12 0)
(1.03438 5.41684e-12 0)
(1.03438 -3.44299e-12 0)
(1.03438 2.18802e-12 0)
(1.03438 -1.38929e-12 0)
(1.03438 8.82717e-13 0)
(1.03438 -5.61601e-13 0)
(1.03438 3.53181e-13 0)
(1.03438 -2.224e-13 0)
(1.03438 1.50383e-13 0)
(1.03438 -9.08054e-14 0)
(1.03438 6.1808e-14 0)
(1.03438 -3.43693e-14 0)
(1.03438 2.46339e-14 0)
(1.03438 -1.72748e-14 0)
(1.03438 1.32538e-14 0)
(1.03438 -7.32129e-15 0)
(1.03438 3.32395e-15 0)
(1.03438 7.60605e-16 0)
(1.03438 3.41909e-15 0)
(1.03438 -4.68904e-15 0)
(1.03438 3.01052e-15 0)
(1.03438 3.05091e-15 0)
(1.03438 4.2235e-15 0)
(1.03438 2.00548e-15 0)
(1.03438 -1.18362e-15 0)
(1.03438 -1.94138e-15 0)
(1.03438 7.43417e-15 0)
(1.03438 7.59721e-15 0)
(1.03438 9.23887e-15 0)
(1.03438 1.23679e-14 0)
(1.03438 1.93666e-14 0)
(1.03438 2.66618e-14 0)
(1.03438 3.29893e-14 0)
(1.03438 3.98296e-14 0)
(1.03438 4.94185e-14 0)
(1.03438 4.90304e-14 0)
(1.03438 5.49068e-14 0)
(1.03438 5.69051e-14 0)
(1.03438 5.44229e-14 0)
(1.03438 5.16425e-14 0)
(1.03438 6.31241e-14 0)
(1.03438 1.28911e-13 0)
(1.03438 1.81585e-13 0)
(1.03438 1.87412e-13 0)
(1.03438 1.86275e-13 0)
(1.03438 2.17732e-13 0)
(1.03438 2.88162e-13 0)
(1.03438 3.08202e-13 0)
(1.03438 3.3281e-13 0)
(1.03438 4.07499e-13 0)
(1.03438 4.0482e-13 0)
(1.03438 4.1144e-13 0)
(1.03438 2.54637e-13 0)
(0.898888 0.135321 0)
(1.14477 0.0272247 0)
(0.980814 0.00650738 0)
(1.08028 0.00134435 0)
(1.01735 -0.0016033 0)
(1.05752 0.000619522 0)
(1.03224 -0.000614778 0)
(1.04834 0.000362008 0)
(1.03812 -0.000234189 0)
(1.04461 0.000153116 0)
(1.04048 -9.6202e-05 0)
(1.04311 6.16456e-05 0)
(1.04144 -3.9197e-05 0)
(1.0425 2.4909e-05 0)
(1.04183 -1.58528e-05 0)
(1.04225 1.0075e-05 0)
(1.04198 -6.40648e-06 0)
(1.04215 4.07272e-06 0)
(1.04204 -2.58932e-06 0)
(1.04211 1.64603e-06 0)
(1.04207 -1.04652e-06 0)
(1.0421 6.65254e-07 0)
(1.04208 -4.22958e-07 0)
(1.04209 2.68867e-07 0)
(1.04208 -1.7094e-07 0)
(1.04209 1.08664e-07 0)
(1.04209 -6.90865e-08 0)
(1.04209 4.39173e-08 0)
(1.04209 -2.79217e-08 0)
(1.04209 1.77494e-08 0)
(1.04209 -1.12847e-08 0)
(1.04209 7.17355e-09 0)
(1.04209 -4.56072e-09 0)
(1.04209 2.89928e-09 0)
(1.04209 -1.84319e-09 0)
(1.04209 1.17181e-09 0)
(1.04209 -7.44885e-10 0)
(1.04209 4.73635e-10 0)
(1.04209 -3.01013e-10 0)
(1.04209 1.91447e-10 0)
(1.04209 -1.21648e-10 0)
(1.04209 7.73654e-11 0)
(1.04209 -4.91688e-11 0)
(1.04209 3.12624e-11 0)
(1.04209 -1.98733e-11 0)
(1.04209 1.26396e-11 0)
(1.04209 -8.03404e-12 0)
(1.04209 5.11207e-12 0)
(1.04209 -3.2498e-12 0)
(1.04209 2.06535e-12 0)
(1.04209 -1.30827e-12 0)
(1.04209 8.33471e-13 0)
(1.04209 -5.30238e-13 0)
(1.04209 3.3587e-13 0)
(1.04209 -2.10439e-13 0)
(1.04209 1.42261e-13 0)
(1.04209 -8.424e-14 0)
(1.04209 5.95405e-14 0)
(1.04209 -3.32288e-14 0)
(1.04209 2.05996e-14 0)
(1.04209 -1.52459e-14 0)
(1.04209 1.64383e-14 0)
(1.04209 -6.62799e-15 0)
(1.04209 4.3693e-15 0)
(1.04209 2.01386e-16 0)
(1.04209 2.74723e-15 0)
(1.04209 -3.43369e-15 0)
(1.04209 2.03399e-15 0)
(1.04209 4.14419e-15 0)
(1.04209 2.59554e-15 0)
(1.04209 1.75887e-15 0)
(1.04209 -1.55619e-15 0)
(1.04209 -1.74004e-15 0)
(1.04209 8.52344e-15 0)
(1.04209 9.89479e-15 0)
(1.04209 1.41267e-14 0)
(1.04209 1.63465e-14 0)
(1.04209 2.75741e-14 0)
(1.04209 3.00106e-14 0)
(1.04209 4.24112e-14 0)
(1.04209 5.05054e-14 0)
(1.04209 6.43621e-14 0)
(1.04209 6.82173e-14 0)
(1.04209 7.18826e-14 0)
(1.04209 6.97884e-14 0)
(1.04209 6.98062e-14 0)
(1.04209 6.69673e-14 0)
(1.04209 8.12838e-14 0)
(1.04209 1.53505e-13 0)
(1.04209 2.22921e-13 0)
(1.04209 2.43554e-13 0)
(1.04209 2.42034e-13 0)
(1.04209 2.73071e-13 0)
(1.04209 3.64194e-13 0)
(1.04209 4.03112e-13 0)
(1.04209 4.22761e-13 0)
(1.04209 5.07766e-13 0)
(1.04209 5.24465e-13 0)
(1.04209 5.26862e-13 0)
(1.04209 3.14893e-13 0)
(0.897648 0.123037 0)
(1.14489 0.0274657 0)
(0.984095 0.00748124 0)
(1.08337 0.00115017 0)
(1.02033 -0.00151465 0)
(1.06053 0.000513932 0)
(1.03517 -0.000578035 0)
(1.05131 0.000333924 0)
(1.04106 -0.000217079 0)
(1.04757 0.000142858 0)
(1.04343 -8.95022e-05 0)
(1.04607 5.74661e-05 0)
(1.04439 -3.65392e-05 0)
(1.04546 2.32185e-05 0)
(1.04478 -1.47806e-05 0)
(1.04521 9.39303e-06 0)
(1.04494 -5.97307e-06 0)
(1.04511 3.79723e-06 0)
(1.045 -2.41417e-06 0)
(1.04507 1.53469e-06 0)
(1.04503 -9.75735e-07 0)
(1.04505 6.20255e-07 0)
(1.04504 -3.94351e-07 0)
(1.04505 2.50681e-07 0)
(1.04504 -1.59379e-07 0)
(1.04505 1.01314e-07 0)
(1.04504 -6.44138e-08 0)
(1.04504 4.09467e-08 0)
(1.04504 -2.60332e-08 0)
(1.04504 1.65488e-08 0)
(1.04504 -1.05214e-08 0)
(1.04504 6.68834e-09 0)
(1.04504 -4.25223e-09 0)
(1.04504 2.7032e-09 0)
(1.04504 -1.7185e-09 0)
(1.04504 1.09258e-09 0)
(1.04504 -6.9448e-10 0)
(1.04504 4.41626e-10 0)
(1.04504 -2.80627e-10 0)
(1.04504 1.78519e-10 0)
(1.04504 -1.13402e-10 0)
(1.04504 7.2137e-11 0)
(1.04504 -4.58437e-11 0)
(1.04504 2.9146e-11 0)
(1.04504 -1.85296e-11 0)
(1.04504 1.17841e-11 0)
(1.04504 -7.49346e-12 0)
(1.04504 4.76537e-12 0)
(1.04504 -3.0306e-12 0)
(1.04504 1.92674e-12 0)
(1.04504 -1.22013e-12 0)
(1.04504 7.77162e-13 0)
(1.04504 -4.92786e-13 0)
(1.04504 3.14582e-13 0)
(1.04504 -1.97675e-13 0)
(1.04504 1.33968e-13 0)
(1.04504 -7.58149e-14 0)
(1.04504 5.46496e-14 0)
(1.04504 -3.03485e-14 0)
(1.04504 1.86873e-14 0)
(1.04504 -1.34073e-14 0)
(1.04504 1.59047e-14 0)
(1.04504 -4.30281e-15 0)
(1.04504 3.24017e-15 0)
(1.04504 2.75978e-15 0)
(1.04504 3.56307e-15 0)
(1.04504 -3.30533e-15 0)
(1.04504 -1.62485e-16 0)
(1.04504 1.25177e-15 0)
(1.04504 1.12385e-15 0)
(1.04504 2.93968e-15 0)
(1.04504 -3.6274e-16 0)
(1.04504 -1.84228e-15 0)
(1.04504 8.27303e-15 0)
(1.04504 1.05543e-14 0)
(1.04504 1.71954e-14 0)
(1.04504 1.9455e-14 0)
(1.04504 3.33936e-14 0)
(1.04504 3.55671e-14 0)
(1.04504 5.21629e-14 0)
(1.04504 6.22364e-14 0)
(1.04504 8.03146e-14 0)
(1.04504 8.42071e-14 0)
(1.04504 8.71738e-14 0)
(1.04504 8.34796e-14 0)
(1.04504 8.68768e-14 0)
(1.04504 8.2023e-14 0)
(1.04504 9.80763e-14 0)
(1.04504 1.734e-13 0)
(1.04504 2.60075e-13 0)
(1.04504 3.00907e-13 0)
(1.04504 2.97584e-13 0)
(1.04504 3.26323e-13 0)
(1.04504 4.30253e-13 0)
(1.04504 4.89958e-13 0)
(1.04504 5.14358e-13 0)
(1.04504 6.011e-13 0)
(1.04504 6.27917e-13 0)
(1.04504 6.39025e-13 0)
(1.04504 3.77195e-13 0)
(0.895472 0.111422 0)
(1.14342 0.0271856 0)
(0.985544 0.00812414 0)
(1.0846 0.000994043 0)
(1.02152 -0.00142077 0)
(1.06169 0.000419579 0)
(1.03629 -0.000540549 0)
(1.05246 0.000306343 0)
(1.04219 -0.00020014 0)
(1.04871 0.000132572 0)
(1.04457 -8.28209e-05 0)
(1.0472 5.32827e-05 0)
(1.04553 -3.38788e-05 0)
(1.04659 2.15266e-05 0)
(1.04591 -1.3707e-05 0)
(1.04634 8.71022e-06 0)
(1.04607 -5.53909e-06 0)
(1.04624 3.52138e-06 0)
(1.04613 -2.23879e-06 0)
(1.0462 1.42321e-06 0)
(1.04616 -9.04858e-07 0)
(1.04619 5.75199e-07 0)
(1.04617 -3.65706e-07 0)
(1.04618 2.32471e-07 0)
(1.04617 -1.47802e-07 0)
(1.04618 9.39545e-08 0)
(1.04618 -5.97349e-08 0)
(1.04618 3.79723e-08 0)
(1.04618 -2.41422e-08 0)
(1.04618 1.53467e-08 0)
(1.04618 -9.75717e-09 0)
(1.04618 6.20251e-09 0)
(1.04618 -3.94334e-09 0)
(1.04618 2.50686e-09 0)
(1.04618 -1.59364e-09 0)
(1.04618 1.01324e-09 0)
(1.04618 -6.44007e-10 0)
(1.04618 4.09573e-10 0)
(1.04618 -2.60218e-10 0)
(1.04618 1.65566e-10 0)
(1.04618 -1.05155e-10 0)
(1.04618 6.68978e-11 0)
(1.04618 -4.2514e-11 0)
(1.04618 2.70317e-11 0)
(1.04618 -1.71815e-11 0)
(1.04618 1.09296e-11 0)
(1.04618 -6.94518e-12 0)
(1.04618 4.41522e-12 0)
(1.04618 -2.8098e-12 0)
(1.04618 1.78406e-12 0)
(1.04618 -1.13013e-12 0)
(1.04618 7.17973e-13 0)
(1.04618 -4.56796e-13 0)
(1.04618 2.94256e-13 0)
(1.04618 -1.82124e-13 0)
(1.04618 1.24891e-13 0)
(1.04618 -7.0026e-14 0)
(1.04618 4.82166e-14 0)
(1.04618 -2.72655e-14 0)
(1.04618 1.83664e-14 0)
(1.04618 -1.45752e-14 0)
(1.04618 1.56663e-14 0)
(1.04618 -4.71158e-15 0)
(1.04618 5.2067e-15 0)
(1.04618 3.10068e-15 0)
(1.04618 4.61611e-15 0)
(1.04618 -1.6115e-15 0)
(1.04618 -3.44303e-16 0)
(1.04618 1.67755e-15 0)
(1.04618 1.75053e-15 0)
(1.04618 3.76655e-15 0)
(1.04618 1.41571e-15 0)
(1.04618 -1.76703e-15 0)
(1.04618 9.22038e-15 0)
(1.04618 1.4964e-14 0)
(1.04618 2.00636e-14 0)
(1.04618 2.24953e-14 0)
(1.04618 3.93552e-14 0)
(1.04618 4.29341e-14 0)
(1.04618 5.94446e-14 0)
(1.04618 7.36717e-14 0)
(1.04618 9.63695e-14 0)
(1.04618 9.76564e-14 0)
(1.04618 1.02874e-13 0)
(1.04618 1.00354e-13 0)
(1.04618 1.03773e-13 0)
(1.04618 9.91838e-14 0)
(1.04618 1.11695e-13 0)
(1.04618 1.90026e-13 0)
(1.04618 2.94592e-13 0)
(1.04618 3.53191e-13 0)
(1.04618 3.54708e-13 0)
(1.04618 3.76406e-13 0)
(1.04618 4.88726e-13 0)
(1.04618 5.68615e-13 0)
(1.04618 6.03553e-13 0)
(1.04618 6.91269e-13 0)
(1.04618 7.17818e-13 0)
(1.04618 7.4122e-13 0)
(1.04618 4.37186e-13 0)
(0.893163 0.100266 0)
(1.14153 0.0264334 0)
(0.986256 0.00846961 0)
(1.0851 0.000863896 0)
(1.02203 -0.00132099 0)
(1.06215 0.000335644 0)
(1.03672 -0.000501703 0)
(1.0529 0.000278946 0)
(1.04262 -0.000183162 0)
(1.04915 0.000122113 0)
(1.045 -7.60693e-05 0)
(1.04764 4.90373e-05 0)
(1.04596 -3.11789e-05 0)
(1.04703 1.98099e-05 0)
(1.04635 -1.2617e-05 0)
(1.04678 8.0171e-06 0)
(1.04651 -5.09852e-06 0)
(1.04668 3.24133e-06 0)
(1.04657 -2.06074e-06 0)
(1.04664 1.31003e-06 0)
(1.04659 -8.329e-07 0)
(1.04662 5.29456e-07 0)
(1.0466 -3.36624e-07 0)
(1.04662 2.13984e-07 0)
(1.04661 -1.36048e-07 0)
(1.04661 8.64829e-08 0)
(1.04661 -5.49846e-08 0)
(1.04661 3.49526e-08 0)
(1.04661 -2.22223e-08 0)
(1.04661 1.41263e-08 0)
(1.04661 -8.98125e-09 0)
(1.04661 5.70928e-09 0)
(1.04661 -3.62973e-09 0)
(1.04661 2.30753e-09 0)
(1.04661 -1.46688e-09 0)
(1.04661 9.32692e-10 0)
(1.04661 -5.92765e-10 0)
(1.04661 3.77033e-10 0)
(1.04661 -2.39496e-10 0)
(1.04661 1.52415e-10 0)
(1.04661 -9.67852e-11 0)
(1.04661 6.15777e-11 0)
(1.04661 -3.91297e-11 0)
(1.04661 2.48844e-11 0)
(1.04661 -1.58134e-11 0)
(1.04661 1.00631e-11 0)
(1.04661 -6.39213e-12 0)
(1.04661 4.06641e-12 0)
(1.04661 -2.58896e-12 0)
(1.04661 1.64002e-12 0)
(1.04661 -1.03839e-12 0)
(1.04661 6.60314e-13 0)
(1.04661 -4.22127e-13 0)
(1.04661 2.71284e-13 0)
(1.04661 -1.62202e-13 0)
(1.04661 1.15083e-13 0)
(1.04661 -6.77109e-14 0)
(1.04661 4.53484e-14 0)
(1.04661 -2.46187e-14 0)
(1.04661 1.39726e-14 0)
(1.04661 -1.41742e-14 0)
(1.04661 1.32962e-14 0)
(1.04661 -6.73532e-15 0)
(1.04661 4.82084e-15 0)
(1.04661 2.21714e-15 0)
(1.04661 3.78605e-15 0)
(1.04661 -2.71452e-15 0)
(1.04661 1.4444e-15 0)
(1.04661 -7.9328e-16 0)
(1.04661 1.78116e-15 0)
(1.04661 5.33107e-15 0)
(1.04661 2.45309e-15 0)
(1.04661 -3.13975e-15 0)
(1.04661 8.57635e-15 0)
(1.04661 1.572e-14 0)
(1.04661 2.28701e-14 0)
(1.04661 2.36696e-14 0)
(1.04661 4.49837e-14 0)
(1.04661 4.80672e-14 0)
(1.04661 6.62822e-14 0)
(1.04661 8.03779e-14 0)
(1.04661 1.12092e-13 0)
(1.04661 1.11745e-13 0)
(1.04661 1.16413e-13 0)
(1.04661 1.16381e-13 0)
(1.04661 1.18509e-13 0)
(1.04661 1.14949e-13 0)
(1.04661 1.27112e-13 0)
(1.04661 2.06207e-13 0)
(1.04661 3.16863e-13 0)
(1.04661 3.98529e-13 0)
(1.04661 4.1156e-13 0)
(1.04661 4.27249e-13 0)
(1.04661 5.40884e-13 0)
(1.04661 6.35872e-13 0)
(1.04661 6.88937e-13 0)
(1.04661 7.7605e-13 0)
(1.04661 7.98468e-13 0)
(1.04661 8.37422e-13 0)
(1.04661 4.98577e-13 0)
(0.890974 0.089704 0)
(1.13963 0.0252962 0)
(0.986653 0.00855202 0)
(1.08533 0.000755366 0)
(1.02227 -0.00121724 0)
(1.06234 0.000263014 0)
(1.03688 -0.000462024 0)
(1.05307 0.000252141 0)
(1.04278 -0.00016639 0)
(1.04932 0.000111632 0)
(1.04516 -6.93457e-05 0)
(1.04781 4.4791e-05 0)
(1.04613 -2.84784e-05 0)
(1.04719 1.80931e-05 0)
(1.04651 -1.15263e-05 0)
(1.04695 7.32364e-06 0)
(1.04667 -4.65769e-06 0)
(1.04685 2.96111e-06 0)
(1.04674 -1.88258e-06 0)
(1.04681 1.19678e-06 0)
(1.04676 -7.60898e-07 0)
(1.04679 4.83686e-07 0)
(1.04677 -3.07524e-07 0)
(1.04678 1.95486e-07 0)
(1.04678 -1.24287e-07 0)
(1.04678 7.90068e-08 0)
(1.04678 -5.02314e-08 0)
(1.04678 3.19311e-08 0)
(1.04678 -2.03013e-08 0)
(1.04678 1.29051e-08 0)
(1.04678 -8.20485e-09 0)
(1.04678 5.21576e-09 0)
(1.04678 -3.31593e-09 0)
(1.04678 2.10808e-09 0)
(1.04678 -1.34005e-09 0)
(1.04678 8.52097e-10 0)
(1.04678 -5.41491e-10 0)
(1.04678 3.44475e-10 0)
(1.04678 -2.18763e-10 0)
(1.04678 1.39253e-10 0)
(1.04678 -8.84123e-11 0)
(1.04678 5.6258e-11 0)
(1.04678 -3.5744e-11 0)
(1.04678 2.27325e-11 0)
(1.04678 -1.44479e-11 0)
(1.04678 9.19385e-12 0)
(1.04678 -5.83746e-12 0)
(1.04678 3.71658e-12 0)
(1.04678 -2.36477e-12 0)
(1.04678 1.49675e-12 0)
(1.04678 -9.48863e-13 0)
(1.04678 6.03462e-13 0)
(1.04678 -3.86611e-13 0)
(1.04678 2.48267e-13 0)
(1.04678 -1.45743e-13 0)
(1.04678 1.04204e-13 0)
(1.04678 -6.09633e-14 0)
(1.04678 4.24794e-14 0)
(1.04678 -2.16244e-14 0)
(1.04678 8.82591e-15 0)
(1.04678 -1.11793e-14 0)
(1.04678 1.35998e-14 0)
(1.04678 -8.71027e-15 0)
(1.04678 3.25724e-15 0)
(1.04678 4.28958e-15 0)
(1.04678 1.25302e-15 0)
(1.04678 -4.91623e-15 0)
(1.04678 1.94218e-15 0)
(1.04678 -2.2638e-15 0)
(1.04678 6.48315e-16 0)
(1.04678 5.09622e-15 0)
(1.04678 1.99628e-15 0)
(1.04678 -3.60108e-15 0)
(1.04678 8.13462e-15 0)
(1.04678 1.63731e-14 0)
(1.04678 2.41456e-14 0)
(1.04678 2.69219e-14 0)
(1.04678 5.04433e-14 0)
(1.04678 5.28554e-14 0)
(1.04678 7.31244e-14 0)
(1.04678 8.6559e-14 0)
(1.04678 1.2338e-13 0)
(1.04678 1.23833e-13 0)
(1.04678 1.32416e-13 0)
(1.04678 1.33038e-13 0)
(1.04678 1.34003e-13 0)
(1.04678 1.29851e-13 0)
(1.04678 1.40282e-13 0)
(1.04678 2.21684e-13 0)
(1.04678 3.3378e-13 0)
(1.04678 4.35827e-13 0)
(1.04678 4.6506e-13 0)
(1.04678 4.76312e-13 0)
(1.04678 5.90733e-13 0)
(1.04678 6.91572e-13 0)
(1.04678 7.62028e-13 0)
(1.04678 8.57746e-13 0)
(1.04678 8.72286e-13 0)
(1.04678 9.20501e-13 0)
(1.04678 5.51326e-13 0)
(0.88899 0.0796438 0)
(1.13786 0.0238201 0)
(0.986905 0.00840066 0)
(1.08544 0.000661699 0)
(1.0224 -0.00110991 0)
(1.06242 0.00020116 0)
(1.03694 -0.000421399 0)
(1.05314 0.00022588 0)
(1.04284 -0.00014979 0)
(1.04939 0.000101103 0)
(1.04522 -6.26359e-05 0)
(1.04787 4.0534e-05 0)
(1.04619 -2.57713e-05 0)
(1.04726 1.63723e-05 0)
(1.04658 -1.04325e-05 0)
(1.04701 6.62828e-06 0)
(1.04674 -4.21561e-06 0)
(1.04691 2.68009e-06 0)
(1.0468 -1.70391e-06 0)
(1.04687 1.0832e-06 0)
(1.04682 -6.88688e-07 0)
(1.04685 4.37784e-07 0)
(1.04684 -2.7834e-07 0)
(1.04685 1.76934e-07 0)
(1.04684 -1.12492e-07 0)
(1.04684 7.15091e-08 0)
(1.04684 -4.54644e-08 0)
(1.04684 2.89008e-08 0)
(1.04684 -1.83747e-08 0)
(1.04684 1.16804e-08 0)
(1.04684 -7.4262e-09 0)
(1.04684 4.7208e-09 0)
(1.04684 -3.00122e-09 0)
(1.04684 1.90805e-09 0)
(1.04684 -1.21284e-09 0)
(1.04684 7.71267e-10 0)
(1.04684 -4.90069e-10 0)
(1.04684 3.1182e-10 0)
(1.04684 -1.97978e-10 0)
(1.04684 1.26046e-10 0)
(1.04684 -8.00135e-11 0)
(1.04684 5.09212e-11 0)
(1.04684 -3.23514e-11 0)
(1.04684 2.05751e-11 0)
(1.04684 -1.30728e-11 0)
(1.04684 8.32401e-12 0)
(1.04684 -5.28434e-12 0)
(1.04684 3.36185e-12 0)
(1.04684 -2.1381e-12 0)
(1.04684 1.35641e-12 0)
(1.04684 -8.60481e-13 0)
(1.04684 5.46709e-13 0)
(1.04684 -3.47912e-13 0)
(1.04684 2.29264e-13 0)
(1.04684 -1.31392e-13 0)
(1.04684 9.18785e-14 0)
(1.04684 -5.41218e-14 0)
(1.04684 3.88579e-14 0)
(1.04684 -1.73811e-14 0)
(1.04684 5.3142e-15 0)
(1.04684 -9.73274e-15 0)
(1.04684 1.4124e-14 0)
(1.04684 -8.21895e-15 0)
(1.04684 2.67661e-15 0)
(1.04684 4.07678e-15 0)
(1.04684 -4.3287e-16 0)
(1.04684 -2.64486e-15 0)
(1.04684 1.8197e-15 0)
(1.04684 1.63706e-15 0)
(1.04684 4.42312e-17 0)
(1.04684 4.4782e-15 0)
(1.04684 1.99709e-15 0)
(1.04684 -1.51328e-15 0)
(1.04684 8.68702e-15 0)
(1.04684 1.68956e-14 0)
(1.04684 2.60947e-14 0)
(1.04684 2.94044e-14 0)
(1.04684 5.63231e-14 0)
(1.04684 5.91876e-14 0)
(1.04684 8.01371e-14 0)
(1.04684 9.18667e-14 0)
(1.04684 1.33198e-13 0)
(1.04684 1.35709e-13 0)
(1.04684 1.49984e-13 0)
(1.04684 1.50396e-13 0)
(1.04684 1.50944e-13 0)
(1.04684 1.43929e-13 0)
(1.04684 1.54237e-13 0)
(1.04684 2.34372e-13 0)
(1.04684 3.49705e-13 0)
(1.04684 4.62268e-13 0)
(1.04684 5.11611e-13 0)
(1.04684 5.24623e-13 0)
(1.04684 6.37801e-13 0)
(1.04684 7.40115e-13 0)
(1.04684 8.20134e-13 0)
(1.04684 9.30736e-13 0)
(1.04684 9.44268e-13 0)
(1.04684 9.89387e-13 0)
(1.04684 5.89603e-13 0)
(0.887227 0.0700556 0)
(1.13628 0.0220503 0)
(0.987083 0.00804392 0)
(1.0855 0.000578775 0)
(1.02249 -0.000999685 0)
(1.06247 0.000149667 0)
(1.03696 -0.000379902 0)
(1.05317 0.00020021 0)
(1.04286 -0.000133391 0)
(1.04941 9.05474e-05 0)
(1.04525 -5.59534e-05 0)
(1.0479 3.6275e-05 0)
(1.04621 -2.30629e-05 0)
(1.04728 1.46509e-05 0)
(1.0466 -9.33765e-06 0)
(1.04704 5.93238e-06 0)
(1.04676 -3.77314e-06 0)
(1.04693 2.39882e-06 0)
(1.04682 -1.52509e-06 0)
(1.04689 9.69527e-07 0)
(1.04685 -6.16414e-07 0)
(1.04688 3.91841e-07 0)
(1.04686 -2.4913e-07 0)
(1.04687 1.58366e-07 0)
(1.04686 -1.00687e-07 0)
(1.04687 6.40047e-08 0)
(1.04687 -4.06932e-08 0)
(1.04687 2.58679e-08 0)
(1.04687 -1.64464e-08 0)
(1.04687 1.04546e-08 0)
(1.04687 -6.64686e-09 0)
(1.04687 4.22541e-09 0)
(1.04687 -2.68623e-09 0)
(1.04687 1.70785e-09 0)
(1.04687 -1.08553e-09 0)
(1.04687 6.90365e-10 0)
(1.04687 -4.38601e-10 0)
(1.04687 2.79127e-10 0)
(1.04687 -1.77177e-10 0)
(1.04687 1.12827e-10 0)
(1.04687 -7.16082e-11 0)
(1.04687 4.55818e-11 0)
(1.04687 -2.89523e-11 0)
(1.04687 1.8416e-11 0)
(1.04687 -1.1699e-11 0)
(1.04687 7.4533e-12 0)
(1.04687 -4.73186e-12 0)
(1.04687 3.01067e-12 0)
(1.04687 -1.90862e-12 0)
(1.04687 1.21631e-12 0)
(1.04687 -7.69885e-13 0)
(1.04687 4.89166e-13 0)
(1.04687 -3.1085e-13 0)
(1.04687 2.06819e-13 0)
(1.04687 -1.17541e-13 0)
(1.04687 8.05265e-14 0)
(1.04687 -4.91134e-14 0)
(1.04687 3.62869e-14 0)
(1.04687 -1.42827e-14 0)
(1.04687 7.09443e-15 0)
(1.04687 -9.67667e-15 0)
(1.04687 9.73503e-15 0)
(1.04687 -7.2464e-15 0)
(1.04687 1.82527e-15 0)
(1.04687 2.36295e-15 0)
(1.04687 -1.67559e-17 0)
(1.04687 -3.00973e-15 0)
(1.04687 1.78897e-15 0)
(1.04687 7.59173e-16 0)
(1.04687 1.68789e-15 0)
(1.04687 4.10735e-15 0)
(1.04687 1.00174e-15 0)
(1.04687 -9.21764e-16 0)
(1.04687 9.90496e-15 0)
(1.04687 1.71314e-14 0)
(1.04687 2.78106e-14 0)
(1.04687 3.13981e-14 0)
(1.04687 5.9834e-14 0)
(1.04687 6.26936e-14 0)
(1.04687 8.76488e-14 0)
(1.04687 9.77634e-14 0)
(1.04687 1.41478e-13 0)
(1.04687 1.44139e-13 0)
(1.04687 1.65528e-13 0)
(1.04687 1.68578e-13 0)
(1.04687 1.65777e-13 0)
(1.04687 1.58227e-13 0)
(1.04687 1.684e-13 0)
(1.04687 2.45622e-13 0)
(1.04687 3.61372e-13 0)
(1.04687 4.77199e-13 0)
(1.04687 5.45809e-13 0)
(1.04687 5.72822e-13 0)