/*--------------------------------*- C++ -*----------------------------------*\
| =========                 |                                                 |
| \\      /  F ield         | foam-extend: Open Source CFD                    |
|  \\    /   O peration     | Version:     5.0                                |
|   \\  /    A nd           | Web:         http://www.foam-extend.org         |
|    \\/     M anipulation  |                                                 |
\*---------------------------------------------------------------------------*/
FoamFile
{
    version     2.0;
    format      ascii;
    class       volVectorField;
    location    "0.015";
    object      bodyForce;
}
// * * * * * * * * * * * * * * * * * * * * * * * * * * * * * * * * * * * * * //

dimensions      [0 1 -2 0 0 0 0];

internalField   nonuniform List<vector> 
4000
(
(-118.251 0 0)
(-148.986 0 0)
(-130.308 0 0)
(-131.066 0 0)
(-121.076 0 0)
(-112.622 0 0)
(-107.582 0 0)
(-104.237 0 0)
(-101.685 0 0)
(-99.7055 0 0)
(-98.2131 0 0)
(-97.1148 0 0)
(-96.3206 0 0)
(-95.7545 0 0)
(-95.3562 0 0)
(-95.0796 0 0)
(-94.8896 0 0)
(-94.7606 0 0)
(-94.6739 0 0)
(-94.6161 0 0)
(-94.578 0 0)
(-94.5531 0 0)
(-94.5368 0 0)
(-94.5264 0 0)
(-94.5197 0 0)
(-94.5154 0 0)
(-94.5127 0 0)
(-94.511 0 0)
(-94.5099 0 0)
(-94.5092 0 0)
(-94.5088 0 0)
(-94.5086 0 0)
(-94.5084 0 0)
(-94.5083 0 0)
(-94.5083 0 0)
(-94.5082 0 0)
(-94.5082 0 0)
(-94.5082 0 0)
(-94.5082 0 0)
(-94.5082 0 0)
(-94.5082 0 0)
(-94.5082 0 0)
(-94.5082 0 0)
(-94.5082 0 0)
(-94.5082 0 0)
(-94.5082 0 0)
(-94.5082 0 0)
(-94.5082 0 0)
(-94.5082 0 0)
(-94.5082 0 0)
(-94.5082 0 0)
(-94.5082 0 0)
(-94.5082 0 0)
(-94.5082 0 0)
(-94.5082 0 0)
(-94.5082 0 0)
(-94.5082 0 0)
(-94.5082 0 0)
(-94.5082 0 0)
(-94.5082 0 0)
(-94.5082 0 0)
(-94.5082 0 0)
(-94.5082 0 0)
(-94.5082 0 0)
(-94.5082 0 0)
(-94.5082 0 0)
(-94.5082 0 0)
(-94.5082 0 0)
(-94.5082 0 0)
(-94.5082 0 0)
(-94.5082 0 0)
(-94.5082 0 0)
(-94.5082 0 0)
(-94.5082 0 0)
(-94.5082 0 0)
(-94.5082 0 0)
(-94.5082 0 0)
(-94.5082 0 0)
(-94.5082 0 0)
(-94.5083 0 0)
(-94.5083 0 0)
(-94.5084 0 0)
(-94.5086 0 0)
(-94.5088 0 0)
(-94.5092 0 0)
(-94.5098 0 0)
(-94.5105 0 0)
(-94.5116 0 0)
(-94.5132 0 0)
(-94.5153 0 0)
(-94.5179 0 0)
(-94.5206 0 0)
(-94.5213 0 0)
(-94.5205 0 0)
(-94.553 0 0)
(-94.6884 0 0)
(-94.591 0 0)
(-93.879 0 0)
(-94.9418 0 0)
(-95.3771 0 0)
(-212.096 0 0)
(-236.578 0 0)
(-184.341 0 0)
(-181.044 0 0)
(-162.705 0 0)
(-145.222 0 0)
(-133.377 0 0)
(-125.247 0 0)
(-119.237 0 0)
(-114.715 0 0)
(-111.358 0 0)
(-108.908 0 0)
(-107.147 0 0)
(-105.899 0 0)
(-105.026 0 0)
(-104.422 0 0)
(-104.01 0 0)
(-103.73 0 0)
(-103.543 0 0)
(-103.419 0 0)
(-103.337 0 0)
(-103.284 0 0)
(-103.25 0 0)
(-103.227 0 0)
(-103.213 0 0)
(-103.204 0 0)
(-103.198 0 0)
(-103.195 0 0)
(-103.193 0 0)
(-103.191 0 0)
(-103.19 0 0)
(-103.19 0 0)
(-103.189 0 0)
(-103.189 0 0)
(-103.189 0 0)
(-103.189 0 0)
(-103.189 0 0)
(-103.189 0 0)
(-103.189 0 0)
(-103.189 0 0)
(-103.189 0 0)
(-103.189 0 0)
(-103.189 0 0)
(-103.189 0 0)
(-103.189 0 0)
(-103.189 0 0)
(-103.189 0 0)
(-103.189 0 0)
(-103.189 0 0)
(-103.189 0 0)
(-103.189 0 0)
(-103.189 0 0)
(-103.189 0 0)
(-103.189 0 0)
(-103.189 0 0)
(-103.189 0 0)
(-103.189 0 0)
(-103.189 0 0)
(-103.189 0 0)
(-103.189 0 0)
(-103.189 0 0)
(-103.189 0 0)
(-103.189 0 0)
(-103.189 0 0)
(-103.189 0 0)
(-103.189 0 0)
(-103.189 0 0)
(-103.189 0 0)
(-103.189 0 0)
(-103.189 0 0)
(-103.189 0 0)
(-103.189 0 0)
(-103.189 0 0)
(-103.189 0 0)
(-103.189 0 0)
(-103.189 0 0)
(-103.189 0 0)
(-103.189 0 0)
(-103.189 0 0)
(-103.189 0 0)
(-103.189 0 0)
(-103.189 0 0)
(-103.19 0 0)
(-103.19 0 0)
(-103.191 0 0)
(-103.192 0 0)
(-103.194 0 0)
(-103.196 0 0)
(-103.2 0 0)
(-103.204 0 0)
(-103.21 0 0)
(-103.217 0 0)
(-103.223 0 0)
(-103.234 0 0)
(-103.302 0 0)
(-103.486 0 0)
(-103.151 0 0)
(-102.101 0 0)
(-105.105 0 0)
(-103.593 0 0)
(-274.107 0 0)
(-298.758 0 0)
(-219.429 0 0)
(-208.108 0 0)
(-186.819 0 0)
(-166.88 0 0)
(-152.753 0 0)
(-142.777 0 0)
(-135.419 0 0)
(-129.955 0 0)
(-125.948 0 0)
(-123.054 0 0)
(-120.992 0 0)
(-119.542 0 0)
(-118.534 0 0)
(-117.841 0 0)
(-117.37 0 0)
(-117.052 0 0)
(-116.841 0 0)
(-116.701 0 0)
(-116.609 0 0)
(-116.549 0 0)
(-116.511 0 0)
(-116.486 0 0)
(-116.47 0 0)
(-116.46 0 0)
(-116.454 0 0)
(-116.45 0 0)
(-116.447 0 0)
(-116.446 0 0)
(-116.445 0 0)
(-116.444 0 0)
(-116.444 0 0)
(-116.444 0 0)
(-116.444 0 0)
(-116.444 0 0)
(-116.444 0 0)
(-116.444 0 0)
(-116.444 0 0)
(-116.443 0 0)
(-116.443 0 0)
(-116.443 0 0)
(-116.443 0 0)
(-116.444 0 0)
(-116.444 0 0)
(-116.444 0 0)
(-116.444 0 0)
(-116.444 0 0)
(-116.444 0 0)
(-116.444 0 0)
(-116.444 0 0)
(-116.444 0 0)
(-116.444 0 0)
(-116.444 0 0)
(-116.444 0 0)
(-116.444 0 0)
(-116.444 0 0)
(-116.444 0 0)
(-116.444 0 0)
(-116.444 0 0)
(-116.444 0 0)
(-116.444 0 0)
(-116.444 0 0)
(-116.444 0 0)
(-116.444 0 0)
(-116.443 0 0)
(-116.443 0 0)
(-116.443 0 0)
(-116.443 0 0)
(-116.443 0 0)
(-116.443 0 0)
(-116.443 0 0)
(-116.443 0 0)
(-116.443 0 0)
(-116.443 0 0)
(-116.443 0 0)
(-116.443 0 0)
(-116.443 0 0)
(-116.444 0 0)
(-116.444 0 0)
(-116.444 0 0)
(-116.444 0 0)
(-116.444 0 0)
(-116.445 0 0)
(-116.446 0 0)
(-116.447 0 0)
(-116.449 0 0)
(-116.452 0 0)
(-116.456 0 0)
(-116.461 0 0)
(-116.468 0 0)
(-116.477 0 0)
(-116.486 0 0)
(-116.499 0 0)
(-116.563 0 0)
(-116.724 0 0)
(-116.301 0 0)
(-115.423 0 0)
(-119.642 0 0)
(-115.144 0 0)
(-319.008 0 0)
(-357.497 0 0)
(-270.619 0 0)
(-256.849 0 0)
(-235.045 0 0)
(-215.126 0 0)
(-200.852 0 0)
(-190.608 0 0)
(-183.018 0 0)
(-177.407 0 0)
(-173.322 0 0)
(-170.394 0 0)
(-168.322 0 0)
(-166.874 0 0)
(-165.872 0 0)
(-165.187 0 0)
(-164.724 0 0)
(-164.413 0 0)
(-164.206 0 0)
(-164.07 0 0)
(-163.981 0 0)
(-163.923 0 0)
(-163.886 0 0)
(-163.862 0 0)
(-163.847 0 0)
(-163.837 0 0)
(-163.831 0 0)
(-163.827 0 0)
(-163.825 0 0)
(-163.824 0 0)
(-163.823 0 0)
(-163.822 0 0)
(-163.822 0 0)
(-163.822 0 0)
(-163.821 0 0)
(-163.821 0 0)
(-163.821 0 0)
(-163.821 0 0)
(-163.821 0 0)
(-163.821 0 0)
(-163.821 0 0)
(-163.821 0 0)
(-163.821 0 0)
(-163.821 0 0)
(-163.821 0 0)
(-163.821 0 0)
(-163.821 0 0)
(-163.821 0 0)
(-163.821 0 0)
(-163.821 0 0)
(-163.821 0 0)
(-163.821 0 0)
(-163.821 0 0)
(-163.821 0 0)
(-163.821 0 0)
(-163.821 0 0)
(-163.821 0 0)
(-163.821 0 0)
(-163.821 0 0)
(-163.821 0 0)
(-163.821 0 0)
(-163.821 0 0)
(-163.821 0 0)
(-163.821 0 0)
(-163.821 0 0)
(-163.821 0 0)
(-163.821 0 0)
(-163.821 0 0)
(-163.821 0 0)
(-163.821 0 0)
(-163.821 0 0)
(-163.821 0 0)
(-163.821 0 0)
(-163.821 0 0)
(-163.821 0 0)
(-163.821 0 0)
(-163.821 0 0)
(-163.821 0 0)
(-163.821 0 0)
(-163.821 0 0)
(-163.821 0 0)
(-163.822 0 0)
(-163.822 0 0)
(-163.823 0 0)
(-163.823 0 0)
(-163.825 0 0)
(-163.827 0 0)
(-163.829 0 0)
(-163.833 0 0)
(-163.839 0 0)
(-163.846 0 0)
(-163.855 0 0)
(-163.864 0 0)
(-163.873 0 0)
(-163.927 0 0)
(-164.081 0 0)
(-163.647 0 0)
(-162.85 0 0)
(-167.708 0 0)
(-161.397 0 0)
(-348.787 0 0)
(-405.676 0 0)
(-326.836 0 0)
(-317.931 0 0)
(-297.869 0 0)
(-279.107 0 0)
(-265.671 0 0)
(-255.953 0 0)
(-248.696 0 0)
(-243.314 0 0)
(-239.405 0 0)
(-236.612 0 0)
(-234.644 0 0)
(-233.272 0 0)
(-232.327 0 0)
(-231.683 0 0)
(-231.248 0 0)
(-230.957 0 0)
(-230.764 0 0)
(-230.637 0 0)
(-230.555 0 0)
(-230.501 0 0)
(-230.467 0 0)
(-230.444 0 0)
(-230.43 0 0)
(-230.422 0 0)
(-230.416 0 0)
(-230.413 0 0)
(-230.41 0 0)
(-230.409 0 0)
(-230.408 0 0)
(-230.408 0 0)
(-230.407 0 0)
(-230.407 0 0)
(-230.407 0 0)
(-230.407 0 0)
(-230.407 0 0)
(-230.407 0 0)
(-230.407 0 0)
(-230.407 0 0)
(-230.407 0 0)
(-230.407 0 0)
(-230.407 0 0)
(-230.407 0 0)
(-230.407 0 0)
(-230.407 0 0)
(-230.407 0 0)
(-230.407 0 0)
(-230.407 0 0)
(-230.407 0 0)
(-230.407 0 0)
(-230.407 0 0)
(-230.407 0 0)
(-230.407 0 0)
(-230.407 0 0)
(-230.407 0 0)
(-230.407 0 0)
(-230.407 0 0)
(-230.407 0 0)
(-230.407 0 0)
(-230.407 0 0)
(-230.407 0 0)
(-230.407 0 0)
(-230.407 0 0)
(-230.407 0 0)
(-230.407 0 0)
(-230.407 0 0)
(-230.407 0 0)
(-230.407 0 0)
(-230.407 0 0)
(-230.407 0 0)
(-230.407 0 0)
(-230.407 0 0)
(-230.407 0 0)
(-230.407 0 0)
(-230.407 0 0)
(-230.407 0 0)
(-230.407 0 0)
(-230.407 0 0)
(-230.407 0 0)
(-230.407 0 0)
(-230.407 0 0)
(-230.408 0 0)
(-230.408 0 0)
(-230.409 0 0)
(-230.41 0 0)
(-230.412 0 0)
(-230.414 0 0)
(-230.418 0 0)
(-230.423 0 0)
(-230.43 0 0)
(-230.438 0 0)
(-230.446 0 0)
(-230.451 0 0)
(-230.499 0 0)
(-230.667 0 0)
(-230.224 0 0)
(-229.337 0 0)
(-234.548 0 0)
(-227.429 0 0)
(-367.371 0 0)
(-440.741 0 0)
(-376.106 0 0)
(-376.285 0 0)
(-360.07 0 0)
(-343.631 0 0)
(-331.869 0 0)
(-323.298 0 0)
(-316.82 0 0)
(-311.964 0 0)
(-308.436 0 0)
(-305.915 0 0)
(-304.14 0 0)
(-302.906 0 0)
(-302.057 0 0)
(-301.48 0 0)
(-301.091 0 0)
(-300.832 0 0)
(-300.66 0 0)
(-300.547 0 0)
(-300.474 0 0)
(-300.426 0 0)
(-300.396 0 0)
(-300.376 0 0)
(-300.364 0 0)
(-300.356 0 0)
(-300.351 0 0)
(-300.348 0 0)
(-300.346 0 0)
(-300.345 0 0)
(-300.344 0 0)
(-300.344 0 0)
(-300.344 0 0)
(-300.344 0 0)
(-300.343 0 0)
(-300.343 0 0)
(-300.343 0 0)
(-300.343 0 0)
(-300.343 0 0)
(-300.343 0 0)
(-300.343 0 0)
(-300.343 0 0)
(-300.343 0 0)
(-300.343 0 0)
(-300.343 0 0)
(-300.343 0 0)
(-300.343 0 0)
(-300.343 0 0)
(-300.343 0 0)
(-300.343 0 0)
(-300.343 0 0)
(-300.343 0 0)
(-300.343 0 0)
(-300.343 0 0)
(-300.343 0 0)
(-300.343 0 0)
(-300.343 0 0)
(-300.343 0 0)
(-300.343 0 0)
(-300.343 0 0)
(-300.343 0 0)
(-300.343 0 0)
(-300.343 0 0)
(-300.343 0 0)
(-300.343 0 0)
(-300.343 0 0)
(-300.343 0 0)
(-300.343 0 0)
(-300.343 0 0)
(-300.343 0 0)
(-300.343 0 0)
(-300.343 0 0)
(-300.343 0 0)
(-300.343 0 0)
(-300.343 0 0)
(-300.343 0 0)
(-300.343 0 0)
(-300.343 0 0)
(-300.343 0 0)
(-300.343 0 0)
(-300.344 0 0)
(-300.344 0 0)
(-300.344 0 0)
(-300.344 0 0)
(-300.345 0 0)
(-300.346 0 0)
(-300.348 0 0)
(-300.35 0 0)
(-300.353 0 0)
(-300.357 0 0)
(-300.363 0 0)
(-300.371 0 0)
(-300.376 0 0)
(-300.377 0 0)
(-300.422 0 0)
(-300.608 0 0)
(-300.145 0 0)
(-299.114 0 0)
(-304.55 0 0)
(-297.179 0 0)
(-377.646 0 0)
(-462.598 0 0)
(-412.63 0 0)
(-423.251 0 0)
(-412.149 0 0)
(-398.874 0 0)
(-389.397 0 0)
(-382.428 0 0)
(-377.05 0 0)
(-372.959 0 0)
(-369.968 0 0)
(-367.826 0 0)
(-366.319 0 0)
(-365.271 0 0)
(-364.551 0 0)
(-364.063 0 0)
(-363.734 0 0)
(-363.515 0 0)
(-363.371 0 0)
(-363.276 0 0)
(-363.214 0 0)
(-363.174 0 0)
(-363.149 0 0)
(-363.133 0 0)
(-363.122 0 0)
(-363.116 0 0)
(-363.112 0 0)
(-363.109 0 0)
(-363.107 0 0)
(-363.106 0 0)
(-363.106 0 0)
(-363.105 0 0)
(-363.105 0 0)
(-363.105 0 0)
(-363.105 0 0)
(-363.105 0 0)
(-363.105 0 0)
(-363.105 0 0)
(-363.105 0 0)
(-363.105 0 0)
(-363.105 0 0)
(-363.105 0 0)
(-363.105 0 0)
(-363.105 0 0)
(-363.105 0 0)
(-363.105 0 0)
(-363.105 0 0)
(-363.105 0 0)
(-363.105 0 0)
(-363.105 0 0)
(-363.105 0 0)
(-363.105 0 0)
(-363.105 0 0)
(-363.105 0 0)
(-363.105 0 0)
(-363.105 0 0)
(-363.105 0 0)
(-363.105 0 0)
(-363.105 0 0)
(-363.105 0 0)
(-363.105 0 0)
(-363.105 0 0)
(-363.105 0 0)
(-363.105 0 0)
(-363.105 0 0)
(-363.105 0 0)
(-363.105 0 0)
(-363.105 0 0)
(-363.105 0 0)
(-363.105 0 0)
(-363.105 0 0)
(-363.105 0 0)
(-363.105 0 0)
(-363.105 0 0)
(-363.105 0 0)
(-363.105 0 0)
(-363.105 0 0)
(-363.105 0 0)
(-363.105 0 0)
(-363.105 0 0)
(-363.105 0 0)
(-363.105 0 0)
(-363.105 0 0)
(-363.106 0 0)
(-363.106 0 0)
(-363.107 0 0)
(-363.109 0 0)
(-363.11 0 0)
(-363.113 0 0)
(-363.117 0 0)
(-363.122 0 0)
(-363.127 0 0)
(-363.13 0 0)
(-363.126 0 0)
(-363.17 0 0)
(-363.373 0 0)
(-362.877 0 0)
(-361.712 0 0)
(-367.316 0 0)
(-359.948 0 0)
(-382.178 0 0)
(-473.497 0 0)
(-435.815 0 0)
(-456.303 0 0)
(-450.693 0 0)
(-441 0 0)
(-434.175 0 0)
(-429.102 0 0)
(-425.046 0 0)
(-421.889 0 0)
(-419.553 0 0)
(-417.873 0 0)
(-416.688 0 0)
(-415.865 0 0)
(-415.3 0 0)
(-414.917 0 0)
(-414.659 0 0)
(-414.488 0 0)
(-414.375 0 0)
(-414.302 0 0)
(-414.254 0 0)
(-414.223 0 0)
(-414.203 0 0)
(-414.19 0 0)
(-414.182 0 0)
(-414.177 0 0)
(-414.174 0 0)
(-414.172 0 0)
(-414.171 0 0)
(-414.17 0 0)
(-414.17 0 0)
(-414.169 0 0)
(-414.169 0 0)
(-414.169 0 0)
(-414.169 0 0)
(-414.169 0 0)
(-414.169 0 0)
(-414.169 0 0)
(-414.169 0 0)
(-414.169 0 0)
(-414.169 0 0)
(-414.169 0 0)
(-414.169 0 0)
(-414.169 0 0)
(-414.169 0 0)
(-414.169 0 0)
(-414.169 0 0)
(-414.169 0 0)
(-414.169 0 0)
(-414.169 0 0)
(-414.169 0 0)
(-414.169 0 0)
(-414.169 0 0)
(-414.169 0 0)
(-414.169 0 0)
(-414.169 0 0)
(-414.169 0 0)
(-414.169 0 0)
(-414.169 0 0)
(-414.169 0 0)
(-414.169 0 0)
(-414.169 0 0)
(-414.169 0 0)
(-414.169 0 0)
(-414.169 0 0)
(-414.169 0 0)
(-414.169 0 0)
(-414.169 0 0)
(-414.169 0 0)
(-414.169 0 0)
(-414.169 0 0)
(-414.169 0 0)
(-414.169 0 0)
(-414.169 0 0)
(-414.169 0 0)
(-414.169 0 0)
(-414.169 0 0)
(-414.169 0 0)
(-414.169 0 0)
(-414.169 0 0)
(-414.169 0 0)
(-414.169 0 0)
(-414.169 0 0)
(-414.17 0 0)
(-414.17 0 0)
(-414.171 0 0)
(-414.172 0 0)
(-414.173 0 0)
(-414.175 0 0)
(-414.178 0 0)
(-414.182 0 0)
(-414.186 0 0)
(-414.186 0 0)
(-414.178 0 0)
(-414.221 0 0)
(-414.435 0 0)
(-413.904 0 0)
(-412.634 0 0)
(-418.377 0 0)
(-411.102 0 0)
(-383.1 0 0)
(-476.56 0 0)
(-447.843 0 0)
(-476.592 0 0)
(-476.195 0 0)
(-470.12 0 0)
(-466.081 0 0)
(-463.056 0 0)
(-460.462 0 0)
(-458.343 0 0)
(-456.744 0 0)
(-455.583 0 0)
(-454.761 0 0)
(-454.19 0 0)
(-453.798 0 0)
(-453.533 0 0)
(-453.355 0 0)
(-453.237 0 0)
(-453.16 0 0)
(-453.109 0 0)
(-453.076 0 0)
(-453.055 0 0)
(-453.042 0 0)
(-453.033 0 0)
(-453.028 0 0)
(-453.024 0 0)
(-453.022 0 0)
(-453.021 0 0)
(-453.02 0 0)
(-453.02 0 0)
(-453.019 0 0)
(-453.019 0 0)
(-453.019 0 0)
(-453.019 0 0)
(-453.019 0 0)
(-453.019 0 0)
(-453.019 0 0)
(-453.019 0 0)
(-453.019 0 0)
(-453.019 0 0)
(-453.019 0 0)
(-453.019 0 0)
(-453.019 0 0)
(-453.019 0 0)
(-453.019 0 0)
(-453.019 0 0)
(-453.019 0 0)
(-453.019 0 0)
(-453.019 0 0)
(-453.019 0 0)
(-453.019 0 0)
(-453.019 0 0)
(-453.019 0 0)
(-453.019 0 0)
(-453.019 0 0)
(-453.019 0 0)
(-453.019 0 0)
(-453.019 0 0)
(-453.019 0 0)
(-453.019 0 0)
(-453.019 0 0)
(-453.019 0 0)
(-453.019 0 0)
(-453.019 0 0)
(-453.019 0 0)
(-453.019 0 0)
(-453.019 0 0)
(-453.019 0 0)
(-453.019 0 0)
(-453.019 0 0)
(-453.019 0 0)
(-453.019 0 0)
(-453.019 0 0)
(-453.019 0 0)
(-453.019 0 0)
(-453.019 0 0)
(-453.019 0 0)
(-453.019 0 0)
(-453.019 0 0)
(-453.019 0 0)
(-453.019 0 0)
(-453.019 0 0)
(-453.019 0 0)
(-453.019 0 0)
(-453.019 0 0)
(-453.02 0 0)
(-453.021 0 0)
(-453.022 0 0)
(-453.023 0 0)
(-453.025 0 0)
(-453.027 0 0)
(-453.029 0 0)
(-453.027 0 0)
(-453.015 0 0)
(-453.058 0 0)
(-453.281 0 0)
(-452.715 0 0)
(-451.374 0 0)
(-457.236 0 0)
(-450.06 0 0)
(-382.013 0 0)
(-474.724 0 0)
(-451.783 0 0)
(-486.846 0 0)
(-490.96 0 0)
(-488.275 0 0)
(-486.97 0 0)
(-486.024 0 0)
(-484.949 0 0)
(-483.925 0 0)
(-483.109 0 0)
(-482.503 0 0)
(-482.071 0 0)
(-481.77 0 0)
(-481.565 0 0)
(-481.426 0 0)
(-481.333 0 0)
(-481.272 0 0)
(-481.232 0 0)
(-481.207 0 0)
(-481.19 0 0)
(-481.179 0 0)
(-481.173 0 0)
(-481.168 0 0)
(-481.166 0 0)
(-481.164 0 0)
(-481.163 0 0)
(-481.162 0 0)
(-481.162 0 0)
(-481.162 0 0)
(-481.161 0 0)
(-481.161 0 0)
(-481.161 0 0)
(-481.161 0 0)
(-481.161 0 0)
(-481.161 0 0)
(-481.161 0 0)
(-481.161 0 0)
(-481.161 0 0)
(-481.161 0 0)
(-481.161 0 0)
(-481.161 0 0)
(-481.161 0 0)
(-481.161 0 0)
(-481.161 0 0)
(-481.161 0 0)
(-481.161 0 0)
(-481.161 0 0)
(-481.161 0 0)
(-481.161 0 0)
(-481.161 0 0)
(-481.161 0 0)
(-481.161 0 0)
(-481.161 0 0)
(-481.161 0 0)
(-481.161 0 0)
(-481.161 0 0)
(-481.161 0 0)
(-481.161 0 0)
(-481.161 0 0)
(-481.161 0 0)
(-481.161 0 0)
(-481.161 0 0)
(-481.161 0 0)
(-481.161 0 0)
(-481.161 0 0)
(-481.161 0 0)
(-481.161 0 0)
(-481.161 0 0)
(-481.161 0 0)
(-481.161 0 0)
(-481.161 0 0)
(-481.161 0 0)
(-481.161 0 0)
(-481.161 0 0)
(-481.161 0 0)
(-481.161 0 0)
(-481.161 0 0)
(-481.161 0 0)
(-481.161 0 0)
(-481.161 0 0)
(-481.161 0 0)
(-481.161 0 0)
(-481.161 0 0)
(-481.162 0 0)
(-481.162 0 0)
(-481.162 0 0)
(-481.163 0 0)
(-481.163 0 0)
(-481.164 0 0)
(-481.165 0 0)
(-481.166 0 0)
(-481.161 0 0)
(-481.145 0 0)
(-481.188 0 0)
(-481.417 0 0)
(-480.821 0 0)
(-479.439 0 0)
(-485.402 0 0)
(-478.3 0 0)
(-379.996 0 0)
(-470.291 0 0)
(-450.536 0 0)
(-490.04 0 0)
(-497.781 0 0)
(-498.095 0 0)
(-499.336 0 0)
(-500.403 0 0)
(-500.837 0 0)
(-500.924 0 0)
(-500.909 0 0)
(-500.875 0 0)
(-500.845 0 0)
(-500.824 0 0)
(-500.81 0 0)
(-500.802 0 0)
(-500.798 0 0)
(-500.796 0 0)
(-500.795 0 0)
(-500.795 0 0)
(-500.795 0 0)
(-500.795 0 0)
(-500.795 0 0)
(-500.795 0 0)
(-500.795 0 0)
(-500.795 0 0)
(-500.795 0 0)
(-500.795 0 0)
(-500.795 0 0)
(-500.796 0 0)
(-500.796 0 0)
(-500.796 0 0)
(-500.796 0 0)
(-500.796 0 0)
(-500.796 0 0)
(-500.796 0 0)
(-500.796 0 0)
(-500.796 0 0)
(-500.796 0 0)
(-500.796 0 0)
(-500.796 0 0)
(-500.796 0 0)
(-500.796 0 0)
(-500.796 0 0)
(-500.796 0 0)
(-500.796 0 0)
(-500.796 0 0)
(-500.796 0 0)
(-500.796 0 0)
(-500.796 0 0)
(-500.796 0 0)
(-500.796 0 0)
(-500.796 0 0)
(-500.796 0 0)
(-500.796 0 0)
(-500.796 0 0)
(-500.796 0 0)
(-500.796 0 0)
(-500.796 0 0)
(-500.796 0 0)
(-500.796 0 0)
(-500.796 0 0)
(-500.796 0 0)
(-500.796 0 0)
(-500.796 0 0)
(-500.796 0 0)
(-500.796 0 0)
(-500.796 0 0)
(-500.796 0 0)
(-500.796 0 0)
(-500.796 0 0)
(-500.796 0 0)
(-500.796 0 0)
(-500.796 0 0)
(-500.796 0 0)
(-500.796 0 0)
(-500.796 0 0)
(-500.796 0 0)
(-500.796 0 0)
(-500.796 0 0)
(-500.795 0 0)
(-500.795 0 0)
(-500.795 0 0)
(-500.795 0 0)
(-500.795 0 0)
(-500.795 0 0)
(-500.795 0 0)
(-500.795 0 0)
(-500.795 0 0)
(-500.795 0 0)
(-500.795 0 0)
(-500.794 0 0)
(-500.786 0 0)
(-500.768 0 0)
(-500.811 0 0)
(-501.045 0 0)
(-500.425 0 0)
(-499.024 0 0)
(-505.07 0 0)
(-498.01 0 0)
(-377.717 0 0)
(-464.847 0 0)
(-446.404 0 0)
(-488.755 0 0)
(-499.235 0 0)
(-502.074 0 0)
(-505.592 0 0)
(-508.539 0 0)
(-510.423 0 0)
(-511.593 0 0)
(-512.369 0 0)
(-512.904 0 0)
(-513.277 0 0)
(-513.536 0 0)
(-513.716 0 0)
(-513.839 0 0)
(-513.923 0 0)
(-513.98 0 0)
(-514.018 0 0)
(-514.044 0 0)
(-514.06 0 0)
(-514.071 0 0)
(-514.078 0 0)
(-514.083 0 0)
(-514.086 0 0)
(-514.088 0 0)
(-514.089 0 0)
(-514.09 0 0)
(-514.09 0 0)
(-514.091 0 0)
(-514.091 0 0)
(-514.091 0 0)
(-514.091 0 0)
(-514.091 0 0)
(-514.091 0 0)
(-514.091 0 0)
(-514.091 0 0)
(-514.091 0 0)
(-514.091 0 0)
(-514.091 0 0)
(-514.091 0 0)
(-514.091 0 0)
(-514.091 0 0)
(-514.091 0 0)
(-514.091 0 0)
(-514.091 0 0)
(-514.091 0 0)
(-514.091 0 0)
(-514.091 0 0)
(-514.091 0 0)
(-514.091 0 0)
(-514.091 0 0)
(-514.091 0 0)
(-514.091 0 0)
(-514.091 0 0)
(-514.091 0 0)
(-514.091 0 0)
(-514.091 0 0)
(-514.091 0 0)
(-514.091 0 0)
(-514.091 0 0)
(-514.091 0 0)
(-514.091 0 0)
(-514.091 0 0)
(-514.091 0 0)
(-514.091 0 0)
(-514.091 0 0)
(-514.091 0 0)
(-514.091 0 0)
(-514.091 0 0)
(-514.091 0 0)
(-514.091 0 0)
(-514.091 0 0)
(-514.091 0 0)
(-514.091 0 0)
(-514.091 0 0)
(-514.091 0 0)
(-514.091 0 0)
(-514.091 0 0)
(-514.091 0 0)
(-514.091 0 0)
(-514.091 0 0)
(-514.091 0 0)
(-514.091 0 0)
(-514.09 0 0)
(-514.09 0 0)
(-514.09 0 0)
(-514.089 0 0)
(-514.088 0 0)
(-514.087 0 0)
(-514.086 0 0)
(-514.083 0 0)
(-514.073 0 0)
(-514.053 0 0)
(-514.096 0 0)
(-514.334 0 0)
(-513.696 0 0)
(-512.291 0 0)
(-518.403 0 0)
(-511.358 0 0)
(-375.54 0 0)
(-459.371 0 0)
(-441.013 0 0)
(-484.978 0 0)
(-497.402 0 0)
(-502.278 0 0)
(-507.763 0 0)
(-512.41 0 0)
(-515.642 0 0)
(-517.839 0 0)
(-519.375 0 0)
(-520.459 0 0)
(-521.222 0 0)
(-521.754 0 0)
(-522.121 0 0)
(-522.373 0 0)
(-522.543 0 0)
(-522.657 0 0)
(-522.734 0 0)
(-522.784 0 0)
(-522.817 0 0)
(-522.839 0 0)
(-522.852 0 0)
(-522.861 0 0)
(-522.867 0 0)
(-522.871 0 0)
(-522.873 0 0)
(-522.874 0 0)
(-522.875 0 0)
(-522.876 0 0)
(-522.876 0 0)
(-522.876 0 0)
(-522.876 0 0)
(-522.877 0 0)
(-522.877 0 0)
(-522.877 0 0)
(-522.877 0 0)
(-522.877 0 0)
(-522.877 0 0)
(-522.877 0 0)
(-522.877 0 0)
(-522.877 0 0)
(-522.877 0 0)
(-522.877 0 0)
(-522.877 0 0)
(-522.877 0 0)
(-522.877 0 0)
(-522.877 0 0)
(-522.877 0 0)
(-522.877 0 0)
(-522.877 0 0)
(-522.877 0 0)
(-522.877 0 0)
(-522.877 0 0)
(-522.877 0 0)
(-522.877 0 0)
(-522.877 0 0)
(-522.877 0 0)
(-522.877 0 0)
(-522.877 0 0)
(-522.877 0 0)
(-522.877 0 0)
(-522.877 0 0)
(-522.877 0 0)
(-522.877 0 0)
(-522.877 0 0)
(-522.877 0 0)
(-522.877 0 0)
(-522.877 0 0)
(-522.877 0 0)
(-522.877 0 0)
(-522.877 0 0)
(-522.877 0 0)
(-522.877 0 0)
(-522.877 0 0)
(-522.877 0 0)
(-522.877 0 0)
(-522.877 0 0)
(-522.877 0 0)
(-522.877 0 0)
(-522.876 0 0)
(-522.876 0 0)
(-522.876 0 0)
(-522.876 0 0)
(-522.876 0 0)
(-522.875 0 0)
(-522.874 0 0)
(-522.873 0 0)
(-522.872 0 0)
(-522.87 0 0)
(-522.867 0 0)
(-522.863 0 0)
(-522.852 0 0)
(-522.829 0 0)
(-522.874 0 0)
(-523.114 0 0)
(-522.463 0 0)
(-521.064 0 0)
(-527.227 0 0)
(-520.178 0 0)
(-373.638 0 0)
(-454.396 0 0)
(-435.412 0 0)
(-480.109 0 0)
(-493.826 0 0)
(-500.282 0 0)
(-507.416 0 0)
(-513.554 0 0)
(-518.004 0 0)
(-521.144 0 0)
(-523.385 0 0)
(-524.985 0 0)
(-526.115 0 0)
(-526.904 0 0)
(-527.449 0 0)
(-527.821 0 0)
(-528.073 0 0)
(-528.242 0 0)
(-528.355 0 0)
(-528.429 0 0)
(-528.477 0 0)
(-528.509 0 0)
(-528.529 0 0)
(-528.542 0 0)
(-528.55 0 0)
(-528.555 0 0)
(-528.559 0 0)
(-528.561 0 0)
(-528.562 0 0)
(-528.563 0 0)
(-528.563 0 0)
(-528.564 0 0)
(-528.564 0 0)
(-528.564 0 0)
(-528.564 0 0)
(-528.564 0 0)
(-528.564 0 0)
(-528.564 0 0)
(-528.564 0 0)
(-528.564 0 0)
(-528.564 0 0)
(-528.564 0 0)
(-528.564 0 0)
(-528.564 0 0)
(-528.564 0 0)
(-528.564 0 0)
(-528.564 0 0)
(-528.564 0 0)
(-528.564 0 0)
(-528.564 0 0)
(-528.564 0 0)
(-528.564 0 0)
(-528.564 0 0)
(-528.564 0 0)
(-528.564 0 0)
(-528.564 0 0)
(-528.564 0 0)
(-528.564 0 0)
(-528.564 0 0)
(-528.564 0 0)
(-528.564 0 0)
(-528.564 0 0)
(-528.564 0 0)
(-528.564 0 0)
(-528.564 0 0)
(-528.564 0 0)
(-528.564 0 0)
(-528.564 0 0)
(-528.564 0 0)
(-528.564 0 0)
(-528.564 0 0)
(-528.564 0 0)
(-528.564 0 0)
(-528.564 0 0)
(-528.564 0 0)
(-528.564 0 0)
(-528.564 0 0)
(-528.564 0 0)
(-528.564 0 0)
(-528.564 0 0)
(-528.564 0 0)
(-528.564 0 0)
(-528.563 0 0)
(-528.563 0 0)
(-528.563 0 0)
(-528.562 0 0)
(-528.561 0 0)
(-528.559 0 0)
(-528.557 0 0)
(-528.555 0 0)
(-528.551 0 0)
(-528.545 0 0)
(-528.532 0 0)
(-528.508 0 0)
(-528.555 0 0)
(-528.798 0 0)
(-528.138 0 0)
(-526.749 0 0)
(-532.95 0 0)
(-525.885 0 0)
(-372.068 0 0)
(-450.163 0 0)
(-430.219 0 0)
(-475.068 0 0)
(-489.581 0 0)
(-497.218 0 0)
(-505.693 0 0)
(-513.102 0 0)
(-518.618 0 0)
(-522.598 0 0)
(-525.474 0 0)
(-527.54 0 0)
(-529.004 0 0)
(-530.028 0 0)
(-530.736 0 0)
(-531.219 0 0)
(-531.546 0 0)
(-531.765 0 0)
(-531.91 0 0)
(-532.005 0 0)
(-532.068 0 0)
(-532.109 0 0)
(-532.135 0 0)
(-532.151 0 0)
(-532.162 0 0)
(-532.169 0 0)
(-532.173 0 0)
(-532.176 0 0)
(-532.177 0 0)
(-532.178 0 0)
(-532.179 0 0)
(-532.179 0 0)
(-532.18 0 0)
(-532.18 0 0)
(-532.18 0 0)
(-532.18 0 0)
(-532.18 0 0)
(-532.18 0 0)
(-532.18 0 0)
(-532.18 0 0)
(-532.18 0 0)
(-532.18 0 0)
(-532.18 0 0)
(-532.18 0 0)
(-532.18 0 0)
(-532.18 0 0)
(-532.18 0 0)
(-532.18 0 0)
(-532.18 0 0)
(-532.18 0 0)
(-532.18 0 0)
(-532.18 0 0)
(-532.18 0 0)
(-532.18 0 0)
(-532.18 0 0)
(-532.18 0 0)
(-532.18 0 0)
(-532.18 0 0)
(-532.18 0 0)
(-532.18 0 0)
(-532.18 0 0)
(-532.18 0 0)
(-532.18 0 0)
(-532.18 0 0)
(-532.18 0 0)
(-532.18 0 0)
(-532.18 0 0)
(-532.18 0 0)
(-532.18 0 0)
(-532.18 0 0)
(-532.18 0 0)
(-532.18 0 0)
(-532.18 0 0)
(-532.18 0 0)
(-532.18 0 0)
(-532.18 0 0)
(-532.18 0 0)
(-532.18 0 0)
(-532.18 0 0)
(-532.18 0 0)
(-532.18 0 0)
(-532.179 0 0)
(-532.179 0 0)
(-532.179 0 0)
(-532.178 0 0)
(-532.177 0 0)
(-532.176 0 0)
(-532.174 0 0)
(-532.171 0 0)
(-532.168 0 0)
(-532.163 0 0)
(-532.156 0 0)
(-532.142 0 0)
(-532.117 0 0)
(-532.165 0 0)
(-532.41 0 0)
(-531.745 0 0)
(-530.368 0 0)
(-536.597 0 0)
(-529.51 0 0)
(-370.827 0 0)
(-446.736 0 0)
(-425.755 0 0)
(-470.424 0 0)
(-485.375 0 0)
(-493.865 0 0)
(-503.399 0 0)
(-511.853 0 0)
(-518.27 0 0)
(-522.97 0 0)
(-526.397 0 0)
(-528.869 0 0)
(-530.626 0 0)
(-531.856 0 0)
(-532.706 0 0)
(-533.287 0 0)
(-533.679 0 0)
(-533.942 0 0)
(-534.116 0 0)
(-534.231 0 0)
(-534.306 0 0)
(-534.354 0 0)
(-534.386 0 0)
(-534.406 0 0)
(-534.418 0 0)
(-534.426 0 0)
(-534.431 0 0)
(-534.435 0 0)
(-534.437 0 0)
(-534.438 0 0)
(-534.439 0 0)
(-534.439 0 0)
(-534.439 0 0)
(-534.439 0 0)
(-534.44 0 0)
(-534.44 0 0)
(-534.44 0 0)
(-534.44 0 0)
(-534.44 0 0)
(-534.44 0 0)
(-534.44 0 0)
(-534.44 0 0)
(-534.44 0 0)
(-534.44 0 0)
(-534.44 0 0)
(-534.44 0 0)
(-534.44 0 0)
(-534.44 0 0)
(-534.44 0 0)
(-534.44 0 0)
(-534.44 0 0)
(-534.44 0 0)
(-534.44 0 0)
(-534.44 0 0)
(-534.44 0 0)
(-534.44 0 0)
(-534.44 0 0)
(-534.44 0 0)
(-534.44 0 0)
(-534.44 0 0)
(-534.44 0 0)
(-534.44 0 0)
(-534.44 0 0)
(-534.44 0 0)
(-534.44 0 0)
(-534.44 0 0)
(-534.44 0 0)
(-534.44 0 0)
(-534.44 0 0)
(-534.44 0 0)
(-534.44 0 0)
(-534.44 0 0)
(-534.44 0 0)
(-534.44 0 0)
(-534.44 0 0)
(-534.44 0 0)
(-534.44 0 0)
(-534.44 0 0)
(-534.44 0 0)
(-534.439 0 0)
(-534.439 0 0)
(-534.439 0 0)
(-534.439 0 0)
(-534.438 0 0)
(-534.438 0 0)
(-534.437 0 0)
(-534.435 0 0)
(-534.433 0 0)
(-534.43 0 0)
(-534.425 0 0)
(-534.42 0 0)
(-534.412 0 0)
(-534.397 0 0)
(-534.372 0 0)
(-534.421 0 0)
(-534.668 0 0)
(-534 0 0)
(-532.634 0 0)
(-538.882 0 0)
(-531.774 0 0)
(-369.886 0 0)
(-444.091 0 0)
(-422.161 0 0)
(-466.501 0 0)
(-481.658 0 0)
(-490.739 0 0)
(-501.076 0 0)
(-510.355 0 0)
(-517.499 0 0)
(-522.788 0 0)
(-526.669 0 0)
(-529.478 0 0)
(-531.478 0 0)
(-532.88 0 0)
(-533.849 0 0)
(-534.511 0 0)
(-534.959 0 0)
(-535.258 0 0)
(-535.457 0 0)
(-535.587 0 0)
(-535.672 0 0)
(-535.728 0 0)
(-535.763 0 0)
(-535.786 0 0)
(-535.8 0 0)
(-535.81 0 0)
(-535.815 0 0)
(-535.819 0 0)
(-535.821 0 0)
(-535.823 0 0)
(-535.823 0 0)
(-535.824 0 0)
(-535.824 0 0)
(-535.824 0 0)
(-535.825 0 0)
(-535.825 0 0)
(-535.825 0 0)
(-535.825 0 0)
(-535.825 0 0)
(-535.825 0 0)
(-535.825 0 0)
(-535.825 0 0)
(-535.825 0 0)
(-535.825 0 0)
(-535.825 0 0)
(-535.825 0 0)
(-535.825 0 0)
(-535.825 0 0)
(-535.825 0 0)
(-535.825 0 0)
(-535.825 0 0)
(-535.825 0 0)
(-535.825 0 0)
(-535.825 0 0)
(-535.825 0 0)
(-535.825 0 0)
(-535.825 0 0)
(-535.825 0 0)
(-535.825 0 0)
(-535.825 0 0)
(-535.825 0 0)
(-535.825 0 0)
(-535.825 0 0)
(-535.825 0 0)
(-535.825 0 0)
(-535.825 0 0)
(-535.825 0 0)
(-535.825 0 0)
(-535.825 0 0)
(-535.825 0 0)
(-535.825 0 0)
(-535.825 0 0)
(-535.825 0 0)
(-535.825 0 0)
(-535.825 0 0)
(-535.825 0 0)
(-535.825 0 0)
(-535.825 0 0)
(-535.825 0 0)
(-535.824 0 0)
(-535.824 0 0)
(-535.824 0 0)
(-535.824 0 0)
(-535.823 0 0)
(-535.822 0 0)
(-535.821 0 0)
(-535.819 0 0)
(-535.817 0 0)
(-535.813 0 0)
(-535.809 0 0)
(-535.802 0 0)
(-535.794 0 0)
(-535.777 0 0)
(-535.752 0 0)
(-535.803 0 0)
(-536.052 0 0)
(-535.383 0 0)
(-534.026 0 0)
(-540.287 0 0)
(-533.159 0 0)
(-369.21 0 0)
(-442.169 0 0)
(-419.477 0 0)
(-463.472 0 0)
(-478.7 0 0)
(-488.17 0 0)
(-499.081 0 0)
(-508.972 0 0)
(-516.664 0 0)
(-522.403 0 0)
(-526.631 0 0)
(-529.7 0 0)
(-531.889 0 0)
(-533.423 0 0)
(-534.485 0 0)
(-535.21 0 0)
(-535.7 0 0)
(-536.028 0 0)
(-536.245 0 0)
(-536.388 0 0)
(-536.482 0 0)
(-536.542 0 0)
(-536.581 0 0)
(-536.606 0 0)
(-536.622 0 0)
(-536.632 0 0)
(-536.638 0 0)
(-536.642 0 0)
(-536.644 0 0)
(-536.646 0 0)
(-536.647 0 0)
(-536.647 0 0)
(-536.648 0 0)
(-536.648 0 0)
(-536.648 0 0)
(-536.648 0 0)
(-536.648 0 0)
(-536.648 0 0)
(-536.648 0 0)
(-536.648 0 0)
(-536.648 0 0)
(-536.648 0 0)
(-536.648 0 0)
(-536.648 0 0)
(-536.648 0 0)
(-536.648 0 0)
(-536.648 0 0)
(-536.648 0 0)
(-536.648 0 0)
(-536.648 0 0)
(-536.648 0 0)
(-536.648 0 0)
(-536.648 0 0)
(-536.648 0 0)
(-536.648 0 0)
(-536.648 0 0)
(-536.648 0 0)
(-536.648 0 0)
(-536.648 0 0)
(-536.648 0 0)
(-536.648 0 0)
(-536.648 0 0)
(-536.648 0 0)
(-536.648 0 0)
(-536.648 0 0)
(-536.648 0 0)
(-536.648 0 0)
(-536.648 0 0)
(-536.648 0 0)
(-536.648 0 0)
(-536.648 0 0)
(-536.648 0 0)
(-536.648 0 0)
(-536.648 0 0)
(-536.648 0 0)
(-536.648 0 0)
(-536.648 0 0)
(-536.648 0 0)
(-536.648 0 0)
(-536.648 0 0)
(-536.648 0 0)
(-536.647 0 0)
(-536.647 0 0)
(-536.646 0 0)
(-536.646 0 0)
(-536.644 0 0)
(-536.642 0 0)
(-536.64 0 0)
(-536.636 0 0)
(-536.631 0 0)
(-536.624 0 0)
(-536.615 0 0)
(-536.598 0 0)
(-536.572 0 0)
(-536.624 0 0)
(-536.875 0 0)
(-536.205 0 0)
(-534.856 0 0)
(-541.125 0 0)
(-533.981 0 0)
(-368.768 0 0)
(-440.91 0 0)
(-417.699 0 0)
(-461.422 0 0)
(-476.658 0 0)
(-486.36 0 0)
(-497.642 0 0)
(-507.936 0 0)
(-515.995 0 0)
(-522.037 0 0)
(-526.502 0 0)
(-529.748 0 0)
(-532.064 0 0)
(-533.689 0 0)
(-534.814 0 0)
(-535.582 0 0)
(-536.101 0 0)
(-536.449 0 0)
(-536.679 0 0)
(-536.83 0 0)
(-536.929 0 0)
(-536.993 0 0)
(-537.034 0 0)
(-537.06 0 0)
(-537.077 0 0)
(-537.088 0 0)
(-537.094 0 0)
(-537.098 0 0)
(-537.101 0 0)
(-537.103 0 0)
(-537.104 0 0)
(-537.104 0 0)
(-537.105 0 0)
(-537.105 0 0)
(-537.105 0 0)
(-537.105 0 0)
(-537.105 0 0)
(-537.105 0 0)
(-537.105 0 0)
(-537.105 0 0)
(-537.105 0 0)
(-537.105 0 0)
(-537.105 0 0)
(-537.105 0 0)
(-537.105 0 0)
(-537.105 0 0)
(-537.105 0 0)
(-537.105 0 0)
(-537.105 0 0)
(-537.105 0 0)
(-537.105 0 0)
(-537.105 0 0)
(-537.105 0 0)
(-537.105 0 0)
(-537.105 0 0)
(-537.105 0 0)
(-537.105 0 0)
(-537.105 0 0)
(-537.105 0 0)
(-537.105 0 0)
(-537.105 0 0)
(-537.105 0 0)
(-537.105 0 0)
(-537.105 0 0)
(-537.105 0 0)
(-537.105 0 0)
(-537.105 0 0)
(-537.105 0 0)
(-537.105 0 0)
(-537.105 0 0)
(-537.105 0 0)
(-537.105 0 0)
(-537.105 0 0)
(-537.105 0 0)
(-537.105 0 0)
(-537.105 0 0)
(-537.105 0 0)
(-537.105 0 0)
(-537.105 0 0)
(-537.105 0 0)
(-537.105 0 0)
(-537.104 0 0)
(-537.104 0 0)
(-537.103 0 0)
(-537.103 0 0)
(-537.101 0 0)
(-537.099 0 0)
(-537.096 0 0)
(-537.092 0 0)
(-537.087 0 0)
(-537.08 0 0)
(-537.07 0 0)
(-537.053 0 0)
(-537.027 0 0)
(-537.08 0 0)
(-537.331 0 0)
(-536.661 0 0)
(-535.318 0 0)
(-541.591 0 0)
(-534.436 0 0)
(-368.549 0 0)
(-440.288 0 0)
(-416.816 0 0)
(-460.391 0 0)
(-475.617 0 0)
(-485.428 0 0)
(-496.891 0 0)
(-507.386 0 0)
(-515.629 0 0)
(-521.824 0 0)
(-526.408 0 0)
(-529.743 0 0)
(-532.124 0 0)
(-533.796 0 0)
(-534.952 0 0)
(-535.742 0 0)
(-536.276 0 0)
(-536.633 0 0)
(-536.87 0 0)
(-537.026 0 0)
(-537.127 0 0)
(-537.193 0 0)
(-537.235 0 0)
(-537.262 0 0)
(-537.279 0 0)
(-537.29 0 0)
(-537.297 0 0)
(-537.301 0 0)
(-537.304 0 0)
(-537.306 0 0)
(-537.307 0 0)
(-537.307 0 0)
(-537.308 0 0)
(-537.308 0 0)
(-537.308 0 0)
(-537.308 0 0)
(-537.308 0 0)
(-537.308 0 0)
(-537.308 0 0)
(-537.308 0 0)
(-537.308 0 0)
(-537.308 0 0)
(-537.308 0 0)
(-537.308 0 0)
(-537.308 0 0)
(-537.308 0 0)
(-537.308 0 0)
(-537.308 0 0)
(-537.308 0 0)
(-537.308 0 0)
(-537.308 0 0)
(-537.308 0 0)
(-537.308 0 0)
(-537.308 0 0)
(-537.308 0 0)
(-537.308 0 0)