/*--------------------------------*- C++ -*----------------------------------*\
| =========                 |                                                 |
| \\      /  F ield         | foam-extend: Open Source CFD                    |
|  \\    /   O peration     | Version:     5.0                                |
|   \\  /    A nd           | Web:         http://www.foam-extend.org         |
|    \\/     M anipulation  |                                                 |
\*---------------------------------------------------------------------------*/
FoamFile
{
    version     2.0;
    format      ascii;
    class       volVectorField;
    location    "0.015";
    object      currentDensity;
}
// * * * * * * * * * * * * * * * * * * * * * * * * * * * * * * * * * * * * * //

dimensions      [0 -2 0 0 0 1 0];

internalField   nonuniform List<vector> 
4000
(
(0 0 5.91257)
(0 0 7.44932)
(0 0 6.51539)
(0 0 6.5533)
(0 0 6.05378)
(0 0 5.63109)
(0 0 5.37909)
(0 0 5.21186)
(0 0 5.08423)
(0 0 4.98527)
(0 0 4.91065)
(0 0 4.85574)
(0 0 4.81603)
(0 0 4.78772)
(0 0 4.76781)
(0 0 4.75398)
(0 0 4.74448)
(0 0 4.73803)
(0 0 4.73369)
(0 0 4.73081)
(0 0 4.7289)
(0 0 4.72765)
(0 0 4.72684)
(0 0 4.72632)
(0 0 4.72598)
(0 0 4.72577)
(0 0 4.72563)
(0 0 4.72555)
(0 0 4.7255)
(0 0 4.72546)
(0 0 4.72544)
(0 0 4.72543)
(0 0 4.72542)
(0 0 4.72542)
(0 0 4.72541)
(0 0 4.72541)
(0 0 4.72541)
(0 0 4.72541)
(0 0 4.72541)
(0 0 4.72541)
(0 0 4.72541)
(0 0 4.72541)
(0 0 4.72541)
(0 0 4.72541)
(0 0 4.72541)
(0 0 4.72541)
(0 0 4.72541)
(0 0 4.72541)
(0 0 4.72541)
(0 0 4.72541)
(0 0 4.72541)
(0 0 4.72541)
(0 0 4.72541)
(0 0 4.72541)
(0 0 4.72541)
(0 0 4.72541)
(0 0 4.72541)
(0 0 4.72541)
(0 0 4.72541)
(0 0 4.72541)
(0 0 4.72541)
(0 0 4.72541)
(0 0 4.72541)
(0 0 4.72541)
(0 0 4.72541)
(0 0 4.72541)
(0 0 4.72541)
(0 0 4.72541)
(0 0 4.72541)
(0 0 4.72541)
(0 0 4.72541)
(0 0 4.72541)
(0 0 4.72541)
(0 0 4.72541)
(0 0 4.72541)
(0 0 4.72541)
(0 0 4.72541)
(0 0 4.72541)
(0 0 4.72541)
(0 0 4.72541)
(0 0 4.72542)
(0 0 4.72542)
(0 0 4.72543)
(0 0 4.72544)
(0 0 4.72546)
(0 0 4.72549)
(0 0 4.72553)
(0 0 4.72558)
(0 0 4.72566)
(0 0 4.72576)
(0 0 4.7259)
(0 0 4.72603)
(0 0 4.72606)
(0 0 4.72603)
(0 0 4.72765)
(0 0 4.73442)
(0 0 4.72955)
(0 0 4.69395)
(0 0 4.74709)
(0 0 4.76886)
(0 0 10.6048)
(0 0 11.8289)
(0 0 9.21704)
(0 0 9.05219)
(0 0 8.13525)
(0 0 7.26109)
(0 0 6.66883)
(0 0 6.26236)
(0 0 5.96187)
(0 0 5.73575)
(0 0 5.56789)
(0 0 5.4454)
(0 0 5.35736)
(0 0 5.29497)
(0 0 5.25131)
(0 0 5.22112)
(0 0 5.20048)
(0 0 5.18652)
(0 0 5.17716)
(0 0 5.17096)
(0 0 5.16687)
(0 0 5.16421)
(0 0 5.16248)
(0 0 5.16137)
(0 0 5.16066)
(0 0 5.16021)
(0 0 5.15992)
(0 0 5.15974)
(0 0 5.15963)
(0 0 5.15956)
(0 0 5.15952)
(0 0 5.15949)
(0 0 5.15947)
(0 0 5.15946)
(0 0 5.15946)
(0 0 5.15945)
(0 0 5.15945)
(0 0 5.15945)
(0 0 5.15945)
(0 0 5.15945)
(0 0 5.15945)
(0 0 5.15945)
(0 0 5.15945)
(0 0 5.15945)
(0 0 5.15945)
(0 0 5.15945)
(0 0 5.15945)
(0 0 5.15945)
(0 0 5.15945)
(0 0 5.15945)
(0 0 5.15945)
(0 0 5.15945)
(0 0 5.15945)
(0 0 5.15945)
(0 0 5.15945)
(0 0 5.15945)
(0 0 5.15945)
(0 0 5.15945)
(0 0 5.15945)
(0 0 5.15945)
(0 0 5.15945)
(0 0 5.15945)
(0 0 5.15945)
(0 0 5.15945)
(0 0 5.15945)
(0 0 5.15945)
(0 0 5.15945)
(0 0 5.15945)
(0 0 5.15945)
(0 0 5.15945)
(0 0 5.15945)
(0 0 5.15945)
(0 0 5.15945)
(0 0 5.15945)
(0 0 5.15945)
(0 0 5.15945)
(0 0 5.15945)
(0 0 5.15945)
(0 0 5.15945)
(0 0 5.15946)
(0 0 5.15946)
(0 0 5.15947)
(0 0 5.15949)
(0 0 5.15952)
(0 0 5.15956)
(0 0 5.15961)
(0 0 5.1597)
(0 0 5.15982)
(0 0 5.15999)
(0 0 5.16022)
(0 0 5.16052)
(0 0 5.16086)
(0 0 5.16117)
(0 0 5.16169)
(0 0 5.16509)
(0 0 5.17431)
(0 0 5.15756)
(0 0 5.10503)
(0 0 5.25527)
(0 0 5.17965)
(0 0 13.7053)
(0 0 14.9379)
(0 0 10.9715)
(0 0 10.4054)
(0 0 9.34095)
(0 0 8.344)
(0 0 7.63766)
(0 0 7.13886)
(0 0 6.77095)
(0 0 6.49773)
(0 0 6.29738)
(0 0 6.15269)
(0 0 6.04962)
(0 0 5.9771)
(0 0 5.9267)
(0 0 5.89205)
(0 0 5.86849)
(0 0 5.85262)
(0 0 5.84204)
(0 0 5.83504)
(0 0 5.83045)
(0 0 5.82747)
(0 0 5.82554)
(0 0 5.8243)
(0 0 5.82351)
(0 0 5.82301)
(0 0 5.82269)
(0 0 5.82249)
(0 0 5.82237)
(0 0 5.82229)
(0 0 5.82225)
(0 0 5.82222)
(0 0 5.8222)
(0 0 5.82219)
(0 0 5.82218)
(0 0 5.82218)
(0 0 5.82218)
(0 0 5.82218)
(0 0 5.82218)
(0 0 5.82217)
(0 0 5.82217)
(0 0 5.82217)
(0 0 5.82217)
(0 0 5.82218)
(0 0 5.82218)
(0 0 5.82218)
(0 0 5.82218)
(0 0 5.82218)
(0 0 5.82218)
(0 0 5.82218)
(0 0 5.82218)
(0 0 5.82218)
(0 0 5.82218)
(0 0 5.82218)
(0 0 5.82218)
(0 0 5.82218)
(0 0 5.82218)
(0 0 5.82218)
(0 0 5.82218)
(0 0 5.82218)
(0 0 5.82218)
(0 0 5.82218)
(0 0 5.82218)
(0 0 5.82218)
(0 0 5.82218)
(0 0 5.82217)
(0 0 5.82217)
(0 0 5.82217)
(0 0 5.82217)
(0 0 5.82217)
(0 0 5.82217)
(0 0 5.82217)
(0 0 5.82217)
(0 0 5.82217)
(0 0 5.82217)
(0 0 5.82217)
(0 0 5.82217)
(0 0 5.82217)
(0 0 5.82218)
(0 0 5.82218)
(0 0 5.82219)
(0 0 5.8222)
(0 0 5.82222)
(0 0 5.82225)
(0 0 5.82229)
(0 0 5.82236)
(0 0 5.82246)
(0 0 5.82259)
(0 0 5.82279)
(0 0 5.82306)
(0 0 5.82342)
(0 0 5.82385)
(0 0 5.8243)
(0 0 5.82494)
(0 0 5.82815)
(0 0 5.8362)
(0 0 5.81507)
(0 0 5.77116)
(0 0 5.98211)
(0 0 5.75721)
(0 0 15.9504)
(0 0 17.8749)
(0 0 13.531)
(0 0 12.8425)
(0 0 11.7523)
(0 0 10.7563)
(0 0 10.0426)
(0 0 9.53038)
(0 0 9.15088)
(0 0 8.87034)
(0 0 8.66608)
(0 0 8.51969)
(0 0 8.41611)
(0 0 8.34369)
(0 0 8.29362)
(0 0 8.25937)
(0 0 8.23619)
(0 0 8.22064)
(0 0 8.21031)
(0 0 8.2035)
(0 0 8.19905)
(0 0 8.19616)
(0 0 8.19429)
(0 0 8.1931)
(0 0 8.19234)
(0 0 8.19186)
(0 0 8.19156)
(0 0 8.19137)
(0 0 8.19125)
(0 0 8.19118)
(0 0 8.19113)
(0 0 8.1911)
(0 0 8.19109)
(0 0 8.19108)
(0 0 8.19107)
(0 0 8.19107)
(0 0 8.19106)
(0 0 8.19106)
(0 0 8.19106)
(0 0 8.19106)
(0 0 8.19106)
(0 0 8.19106)
(0 0 8.19106)
(0 0 8.19106)
(0 0 8.19106)
(0 0 8.19106)
(0 0 8.19106)
(0 0 8.19106)
(0 0 8.19106)
(0 0 8.19106)
(0 0 8.19106)
(0 0 8.19106)
(0 0 8.19106)
(0 0 8.19106)
(0 0 8.19106)
(0 0 8.19106)
(0 0 8.19106)
(0 0 8.19106)
(0 0 8.19106)
(0 0 8.19106)
(0 0 8.19106)
(0 0 8.19106)
(0 0 8.19106)
(0 0 8.19106)
(0 0 8.19106)
(0 0 8.19106)
(0 0 8.19106)
(0 0 8.19106)
(0 0 8.19106)
(0 0 8.19106)
(0 0 8.19106)
(0 0 8.19106)
(0 0 8.19106)
(0 0 8.19106)
(0 0 8.19106)
(0 0 8.19106)
(0 0 8.19106)
(0 0 8.19106)
(0 0 8.19106)
(0 0 8.19107)
(0 0 8.19107)
(0 0 8.19109)
(0 0 8.1911)
(0 0 8.19113)
(0 0 8.19117)
(0 0 8.19124)
(0 0 8.19133)
(0 0 8.19147)
(0 0 8.19166)
(0 0 8.19193)
(0 0 8.19229)
(0 0 8.19274)
(0 0 8.19318)
(0 0 8.19367)
(0 0 8.19636)
(0 0 8.20404)
(0 0 8.18235)
(0 0 8.14251)
(0 0 8.3854)
(0 0 8.06984)
(0 0 17.4393)
(0 0 20.2838)
(0 0 16.3418)
(0 0 15.8966)
(0 0 14.8935)
(0 0 13.9554)
(0 0 13.2836)
(0 0 12.7977)
(0 0 12.4348)
(0 0 12.1657)
(0 0 11.9703)
(0 0 11.8306)
(0 0 11.7322)
(0 0 11.6636)
(0 0 11.6163)
(0 0 11.5841)
(0 0 11.5624)
(0 0 11.5478)
(0 0 11.5382)
(0 0 11.5319)
(0 0 11.5277)
(0 0 11.5251)
(0 0 11.5233)
(0 0 11.5222)
(0 0 11.5215)
(0 0 11.5211)
(0 0 11.5208)
(0 0 11.5206)
(0 0 11.5205)
(0 0 11.5205)
(0 0 11.5204)
(0 0 11.5204)
(0 0 11.5204)
(0 0 11.5204)
(0 0 11.5204)
(0 0 11.5204)
(0 0 11.5203)
(0 0 11.5203)
(0 0 11.5203)
(0 0 11.5203)
(0 0 11.5203)
(0 0 11.5203)
(0 0 11.5203)
(0 0 11.5203)
(0 0 11.5203)
(0 0 11.5203)
(0 0 11.5203)
(0 0 11.5203)
(0 0 11.5203)
(0 0 11.5203)
(0 0 11.5203)
(0 0 11.5203)
(0 0 11.5203)
(0 0 11.5203)
(0 0 11.5203)
(0 0 11.5203)
(0 0 11.5203)
(0 0 11.5203)
(0 0 11.5203)
(0 0 11.5203)
(0 0 11.5203)
(0 0 11.5203)
(0 0 11.5203)
(0 0 11.5203)
(0 0 11.5203)
(0 0 11.5203)
(0 0 11.5203)
(0 0 11.5203)
(0 0 11.5203)
(0 0 11.5203)
(0 0 11.5203)
(0 0 11.5203)
(0 0 11.5203)
(0 0 11.5203)
(0 0 11.5203)
(0 0 11.5203)
(0 0 11.5203)
(0 0 11.5203)
(0 0 11.5203)
(0 0 11.5204)
(0 0 11.5204)
(0 0 11.5204)
(0 0 11.5204)
(0 0 11.5204)
(0 0 11.5204)
(0 0 11.5205)
(0 0 11.5206)
(0 0 11.5207)
(0 0 11.5209)
(0 0 11.5212)
(0 0 11.5215)
(0 0 11.5219)
(0 0 11.5223)
(0 0 11.5225)
(0 0 11.525)
(0 0 11.5333)
(0 0 11.5112)
(0 0 11.4669)
(0 0 11.7274)
(0 0 11.3715)
(0 0 18.3686)
(0 0 22.0371)
(0 0 18.8053)
(0 0 18.8142)
(0 0 18.0035)
(0 0 17.1816)
(0 0 16.5934)
(0 0 16.1649)
(0 0 15.841)
(0 0 15.5982)
(0 0 15.4218)
(0 0 15.2958)
(0 0 15.207)
(0 0 15.1453)
(0 0 15.1029)
(0 0 15.074)
(0 0 15.0546)
(0 0 15.0416)
(0 0 15.033)
(0 0 15.0274)
(0 0 15.0237)
(0 0 15.0213)
(0 0 15.0198)
(0 0 15.0188)
(0 0 15.0182)
(0 0 15.0178)
(0 0 15.0176)
(0 0 15.0174)
(0 0 15.0173)
(0 0 15.0173)
(0 0 15.0172)
(0 0 15.0172)
(0 0 15.0172)
(0 0 15.0172)
(0 0 15.0172)
(0 0 15.0172)
(0 0 15.0172)
(0 0 15.0172)
(0 0 15.0172)
(0 0 15.0172)
(0 0 15.0172)
(0 0 15.0172)
(0 0 15.0172)
(0 0 15.0172)
(0 0 15.0172)
(0 0 15.0172)
(0 0 15.0172)
(0 0 15.0172)
(0 0 15.0172)
(0 0 15.0172)
(0 0 15.0172)
(0 0 15.0172)
(0 0 15.0172)
(0 0 15.0172)
(0 0 15.0172)
(0 0 15.0172)
(0 0 15.0172)
(0 0 15.0172)
(0 0 15.0172)
(0 0 15.0172)
(0 0 15.0172)
(0 0 15.0172)
(0 0 15.0172)
(0 0 15.0172)
(0 0 15.0172)
(0 0 15.0172)
(0 0 15.0172)
(0 0 15.0172)
(0 0 15.0172)
(0 0 15.0172)
(0 0 15.0172)
(0 0 15.0172)
(0 0 15.0172)
(0 0 15.0172)
(0 0 15.0172)
(0 0 15.0172)
(0 0 15.0172)
(0 0 15.0172)
(0 0 15.0172)
(0 0 15.0172)
(0 0 15.0172)
(0 0 15.0172)
(0 0 15.0172)
(0 0 15.0172)
(0 0 15.0173)
(0 0 15.0173)
(0 0 15.0174)
(0 0 15.0175)
(0 0 15.0177)
(0 0 15.0179)
(0 0 15.0182)
(0 0 15.0185)
(0 0 15.0188)
(0 0 15.0188)
(0 0 15.0211)
(0 0 15.0304)
(0 0 15.0072)
(0 0 14.9557)
(0 0 15.2275)
(0 0 14.8589)
(0 0 18.8823)
(0 0 23.1299)
(0 0 20.6315)
(0 0 21.1625)
(0 0 20.6074)
(0 0 19.9437)
(0 0 19.4699)
(0 0 19.1214)
(0 0 18.8525)
(0 0 18.6479)
(0 0 18.4984)
(0 0 18.3913)
(0 0 18.3159)
(0 0 18.2635)
(0 0 18.2276)
(0 0 18.2031)
(0 0 18.1867)
(0 0 18.1758)
(0 0 18.1685)
(0 0 18.1638)
(0 0 18.1607)
(0 0 18.1587)
(0 0 18.1574)
(0 0 18.1566)
(0 0 18.1561)
(0 0 18.1558)
(0 0 18.1556)
(0 0 18.1554)
(0 0 18.1554)
(0 0 18.1553)
(0 0 18.1553)
(0 0 18.1553)
(0 0 18.1553)
(0 0 18.1553)
(0 0 18.1553)
(0 0 18.1552)
(0 0 18.1552)
(0 0 18.1552)
(0 0 18.1552)
(0 0 18.1552)
(0 0 18.1552)
(0 0 18.1552)
(0 0 18.1552)
(0 0 18.1552)
(0 0 18.1552)
(0 0 18.1552)
(0 0 18.1552)
(0 0 18.1552)
(0 0 18.1552)
(0 0 18.1552)
(0 0 18.1552)
(0 0 18.1552)
(0 0 18.1552)
(0 0 18.1552)
(0 0 18.1552)
(0 0 18.1552)
(0 0 18.1552)
(0 0 18.1552)
(0 0 18.1552)
(0 0 18.1552)
(0 0 18.1552)
(0 0 18.1552)
(0 0 18.1552)
(0 0 18.1552)
(0 0 18.1552)
(0 0 18.1552)
(0 0 18.1552)
(0 0 18.1552)
(0 0 18.1552)
(0 0 18.1552)
(0 0 18.1552)
(0 0 18.1552)
(0 0 18.1552)
(0 0 18.1552)
(0 0 18.1552)
(0 0 18.1552)
(0 0 18.1552)
(0 0 18.1552)
(0 0 18.1552)
(0 0 18.1552)
(0 0 18.1553)
(0 0 18.1553)
(0 0 18.1553)
(0 0 18.1553)
(0 0 18.1553)
(0 0 18.1554)
(0 0 18.1554)
(0 0 18.1555)
(0 0 18.1557)
(0 0 18.1558)
(0 0 18.1561)
(0 0 18.1564)
(0 0 18.1565)
(0 0 18.1563)
(0 0 18.1585)
(0 0 18.1686)
(0 0 18.1439)
(0 0 18.0856)
(0 0 18.3658)
(0 0 17.9974)
(0 0 19.1089)
(0 0 23.6748)
(0 0 21.7907)
(0 0 22.8152)
(0 0 22.5347)
(0 0 22.05)
(0 0 21.7087)
(0 0 21.4551)
(0 0 21.2523)
(0 0 21.0945)
(0 0 20.9777)
(0 0 20.8937)
(0 0 20.8344)
(0 0 20.7932)
(0 0 20.765)
(0 0 20.7458)
(0 0 20.733)
(0 0 20.7244)
(0 0 20.7188)
(0 0 20.7151)
(0 0 20.7127)
(0 0 20.7111)
(0 0 20.7101)
(0 0 20.7095)
(0 0 20.7091)
(0 0 20.7089)
(0 0 20.7087)
(0 0 20.7086)
(0 0 20.7085)
(0 0 20.7085)
(0 0 20.7085)
(0 0 20.7085)
(0 0 20.7085)
(0 0 20.7085)
(0 0 20.7085)
(0 0 20.7084)
(0 0 20.7084)
(0 0 20.7084)
(0 0 20.7084)
(0 0 20.7084)
(0 0 20.7084)
(0 0 20.7084)
(0 0 20.7084)
(0 0 20.7084)
(0 0 20.7084)
(0 0 20.7084)
(0 0 20.7084)
(0 0 20.7084)
(0 0 20.7084)
(0 0 20.7084)
(0 0 20.7084)
(0 0 20.7084)
(0 0 20.7084)
(0 0 20.7084)
(0 0 20.7084)
(0 0 20.7084)
(0 0 20.7084)
(0 0 20.7084)
(0 0 20.7084)
(0 0 20.7084)
(0 0 20.7084)
(0 0 20.7084)
(0 0 20.7084)
(0 0 20.7084)
(0 0 20.7084)
(0 0 20.7084)
(0 0 20.7084)
(0 0 20.7084)
(0 0 20.7084)
(0 0 20.7084)
(0 0 20.7084)
(0 0 20.7084)
(0 0 20.7084)
(0 0 20.7084)
(0 0 20.7084)
(0 0 20.7084)
(0 0 20.7084)
(0 0 20.7084)
(0 0 20.7084)
(0 0 20.7084)
(0 0 20.7085)
(0 0 20.7085)
(0 0 20.7085)
(0 0 20.7085)
(0 0 20.7085)
(0 0 20.7085)
(0 0 20.7086)
(0 0 20.7087)
(0 0 20.7088)
(0 0 20.7089)
(0 0 20.7091)
(0 0 20.7093)
(0 0 20.7093)
(0 0 20.7089)
(0 0 20.711)
(0 0 20.7218)
(0 0 20.6952)
(0 0 20.6317)
(0 0 20.9189)
(0 0 20.5551)
(0 0 19.155)
(0 0 23.828)
(0 0 22.3921)
(0 0 23.8296)
(0 0 23.8098)
(0 0 23.506)
(0 0 23.3041)
(0 0 23.1528)
(0 0 23.0231)
(0 0 22.9172)
(0 0 22.8372)
(0 0 22.7791)
(0 0 22.7381)
(0 0 22.7095)
(0 0 22.6899)
(0 0 22.6766)
(0 0 22.6678)
(0 0 22.6619)
(0 0 22.658)
(0 0 22.6555)
(0 0 22.6538)
(0 0 22.6528)
(0 0 22.6521)
(0 0 22.6517)
(0 0 22.6514)
(0 0 22.6512)
(0 0 22.6511)
(0 0 22.651)
(0 0 22.651)
(0 0 22.651)
(0 0 22.651)
(0 0 22.651)
(0 0 22.6509)
(0 0 22.6509)
(0 0 22.6509)
(0 0 22.6509)
(0 0 22.6509)
(0 0 22.6509)
(0 0 22.6509)
(0 0 22.6509)
(0 0 22.6509)
(0 0 22.6509)
(0 0 22.6509)
(0 0 22.6509)
(0 0 22.6509)
(0 0 22.6509)
(0 0 22.6509)
(0 0 22.6509)
(0 0 22.6509)
(0 0 22.6509)
(0 0 22.6509)
(0 0 22.6509)
(0 0 22.6509)
(0 0 22.6509)
(0 0 22.6509)
(0 0 22.6509)
(0 0 22.6509)
(0 0 22.6509)
(0 0 22.6509)
(0 0 22.6509)
(0 0 22.6509)
(0 0 22.6509)
(0 0 22.6509)
(0 0 22.6509)
(0 0 22.6509)
(0 0 22.6509)
(0 0 22.6509)
(0 0 22.6509)
(0 0 22.6509)
(0 0 22.6509)
(0 0 22.6509)
(0 0 22.6509)
(0 0 22.6509)
(0 0 22.6509)
(0 0 22.6509)
(0 0 22.6509)
(0 0 22.6509)
(0 0 22.6509)
(0 0 22.6509)
(0 0 22.6509)
(0 0 22.6509)
(0 0 22.6509)
(0 0 22.6509)
(0 0 22.651)
(0 0 22.651)
(0 0 22.651)
(0 0 22.651)
(0 0 22.6511)
(0 0 22.6511)
(0 0 22.6512)
(0 0 22.6514)
(0 0 22.6515)
(0 0 22.6513)
(0 0 22.6508)
(0 0 22.6529)
(0 0 22.664)
(0 0 22.6358)
(0 0 22.5687)
(0 0 22.8618)
(0 0 22.503)
(0 0 19.1006)
(0 0 23.7362)
(0 0 22.5892)
(0 0 24.3423)
(0 0 24.548)
(0 0 24.4138)
(0 0 24.3485)
(0 0 24.3012)
(0 0 24.2474)
(0 0 24.1963)
(0 0 24.1554)
(0 0 24.1252)
(0 0 24.1036)
(0 0 24.0885)
(0 0 24.0782)
(0 0 24.0713)
(0 0 24.0667)
(0 0 24.0636)
(0 0 24.0616)
(0 0 24.0603)
(0 0 24.0595)
(0 0 24.059)
(0 0 24.0586)
(0 0 24.0584)
(0 0 24.0583)
(0 0 24.0582)
(0 0 24.0581)
(0 0 24.0581)
(0 0 24.0581)
(0 0 24.0581)
(0 0 24.0581)
(0 0 24.0581)
(0 0 24.0581)
(0 0 24.0581)
(0 0 24.0581)
(0 0 24.0581)
(0 0 24.0581)
(0 0 24.0581)
(0 0 24.0581)
(0 0 24.0581)
(0 0 24.0581)
(0 0 24.0581)
(0 0 24.0581)
(0 0 24.0581)
(0 0 24.0581)
(0 0 24.0581)
(0 0 24.0581)
(0 0 24.0581)
(0 0 24.0581)
(0 0 24.0581)
(0 0 24.0581)
(0 0 24.0581)
(0 0 24.0581)
(0 0 24.0581)
(0 0 24.0581)
(0 0 24.0581)
(0 0 24.0581)
(0 0 24.0581)
(0 0 24.0581)
(0 0 24.0581)
(0 0 24.0581)
(0 0 24.0581)
(0 0 24.0581)
(0 0 24.0581)
(0 0 24.0581)
(0 0 24.0581)
(0 0 24.0581)
(0 0 24.0581)
(0 0 24.0581)
(0 0 24.0581)
(0 0 24.0581)
(0 0 24.0581)
(0 0 24.0581)
(0 0 24.0581)
(0 0 24.0581)
(0 0 24.0581)
(0 0 24.0581)
(0 0 24.0581)
(0 0 24.0581)
(0 0 24.0581)
(0 0 24.0581)
(0 0 24.0581)
(0 0 24.0581)
(0 0 24.0581)
(0 0 24.0581)
(0 0 24.0581)
(0 0 24.0581)
(0 0 24.0581)
(0 0 24.0582)
(0 0 24.0582)
(0 0 24.0583)
(0 0 24.0583)
(0 0 24.058)
(0 0 24.0573)
(0 0 24.0594)
(0 0 24.0709)
(0 0 24.0411)
(0 0 23.9719)
(0 0 24.2701)
(0 0 23.915)
(0 0 18.9998)
(0 0 23.5146)
(0 0 22.5268)
(0 0 24.502)
(0 0 24.8891)
(0 0 24.9047)
(0 0 24.9668)
(0 0 25.0201)
(0 0 25.0419)
(0 0 25.0462)
(0 0 25.0454)
(0 0 25.0437)
(0 0 25.0422)
(0 0 25.0412)
(0 0 25.0405)
(0 0 25.0401)
(0 0 25.0399)
(0 0 25.0398)
(0 0 25.0397)
(0 0 25.0397)
(0 0 25.0397)
(0 0 25.0397)
(0 0 25.0397)
(0 0 25.0398)
(0 0 25.0398)
(0 0 25.0398)
(0 0 25.0398)
(0 0 25.0398)
(0 0 25.0398)
(0 0 25.0398)
(0 0 25.0398)
(0 0 25.0398)
(0 0 25.0398)
(0 0 25.0398)
(0 0 25.0398)
(0 0 25.0398)
(0 0 25.0398)
(0 0 25.0398)
(0 0 25.0398)
(0 0 25.0398)
(0 0 25.0398)
(0 0 25.0398)
(0 0 25.0398)
(0 0 25.0398)
(0 0 25.0398)
(0 0 25.0398)
(0 0 25.0398)
(0 0 25.0398)
(0 0 25.0398)
(0 0 25.0398)
(0 0 25.0398)
(0 0 25.0398)
(0 0 25.0398)
(0 0 25.0398)
(0 0 25.0398)
(0 0 25.0398)
(0 0 25.0398)
(0 0 25.0398)
(0 0 25.0398)
(0 0 25.0398)
(0 0 25.0398)
(0 0 25.0398)
(0 0 25.0398)
(0 0 25.0398)
(0 0 25.0398)
(0 0 25.0398)
(0 0 25.0398)
(0 0 25.0398)
(0 0 25.0398)
(0 0 25.0398)
(0 0 25.0398)
(0 0 25.0398)
(0 0 25.0398)
(0 0 25.0398)
(0 0 25.0398)
(0 0 25.0398)
(0 0 25.0398)
(0 0 25.0398)
(0 0 25.0398)
(0 0 25.0398)
(0 0 25.0398)
(0 0 25.0398)
(0 0 25.0398)
(0 0 25.0398)
(0 0 25.0398)
(0 0 25.0398)
(0 0 25.0398)
(0 0 25.0398)
(0 0 25.0398)
(0 0 25.0398)
(0 0 25.0397)
(0 0 25.0397)
(0 0 25.0393)
(0 0 25.0384)
(0 0 25.0405)
(0 0 25.0522)
(0 0 25.0212)
(0 0 24.9512)
(0 0 25.2535)
(0 0 24.9005)
(0 0 18.8858)
(0 0 23.2423)
(0 0 22.3202)
(0 0 24.4377)
(0 0 24.9617)
(0 0 25.1037)
(0 0 25.2796)
(0 0 25.4269)
(0 0 25.5211)
(0 0 25.5797)
(0 0 25.6185)
(0 0 25.6452)
(0 0 25.6639)
(0 0 25.6768)
(0 0 25.6858)
(0 0 25.6919)
(0 0 25.6962)
(0 0 25.699)
(0 0 25.7009)
(0 0 25.7022)
(0 0 25.703)
(0 0 25.7036)
(0 0 25.7039)
(0 0 25.7041)
(0 0 25.7043)
(0 0 25.7044)
(0 0 25.7044)
(0 0 25.7045)
(0 0 25.7045)
(0 0 25.7045)
(0 0 25.7045)
(0 0 25.7045)
(0 0 25.7045)
(0 0 25.7045)
(0 0 25.7045)
(0 0 25.7045)
(0 0 25.7045)
(0 0 25.7045)
(0 0 25.7046)
(0 0 25.7046)
(0 0 25.7046)
(0 0 25.7046)
(0 0 25.7046)
(0 0 25.7046)
(0 0 25.7046)
(0 0 25.7046)
(0 0 25.7046)
(0 0 25.7046)
(0 0 25.7046)
(0 0 25.7046)
(0 0 25.7046)
(0 0 25.7046)
(0 0 25.7046)
(0 0 25.7046)
(0 0 25.7046)
(0 0 25.7046)
(0 0 25.7046)
(0 0 25.7046)
(0 0 25.7046)
(0 0 25.7046)
(0 0 25.7046)
(0 0 25.7046)
(0 0 25.7046)
(0 0 25.7046)
(0 0 25.7046)
(0 0 25.7046)
(0 0 25.7046)
(0 0 25.7046)
(0 0 25.7046)
(0 0 25.7046)
(0 0 25.7045)
(0 0 25.7045)
(0 0 25.7045)
(0 0 25.7045)
(0 0 25.7045)
(0 0 25.7045)
(0 0 25.7045)
(0 0 25.7045)
(0 0 25.7045)
(0 0 25.7045)
(0 0 25.7045)
(0 0 25.7045)
(0 0 25.7045)
(0 0 25.7045)
(0 0 25.7045)
(0 0 25.7045)
(0 0 25.7045)
(0 0 25.7045)
(0 0 25.7044)
(0 0 25.7044)
(0 0 25.7043)
(0 0 25.7042)
(0 0 25.7037)
(0 0 25.7026)
(0 0 25.7048)
(0 0 25.7167)
(0 0 25.6848)
(0 0 25.6146)
(0 0 25.9202)
(0 0 25.5679)
(0 0 18.777)
(0 0 22.9685)
(0 0 22.0506)
(0 0 24.2489)
(0 0 24.8701)
(0 0 25.1139)
(0 0 25.3882)
(0 0 25.6205)
(0 0 25.7821)
(0 0 25.892)
(0 0 25.9687)
(0 0 26.023)
(0 0 26.0611)
(0 0 26.0877)
(0 0 26.1061)
(0 0 26.1186)
(0 0 26.1271)
(0 0 26.1329)
(0 0 26.1367)
(0 0 26.1392)
(0 0 26.1409)
(0 0 26.1419)
(0 0 26.1426)
(0 0 26.1431)
(0 0 26.1434)
(0 0 26.1435)
(0 0 26.1436)
(0 0 26.1437)
(0 0 26.1438)
(0 0 26.1438)
(0 0 26.1438)
(0 0 26.1438)
(0 0 26.1438)
(0 0 26.1438)
(0 0 26.1438)
(0 0 26.1438)
(0 0 26.1438)
(0 0 26.1438)
(0 0 26.1438)
(0 0 26.1438)
(0 0 26.1438)
(0 0 26.1438)
(0 0 26.1438)
(0 0 26.1438)
(0 0 26.1438)
(0 0 26.1438)
(0 0 26.1438)
(0 0 26.1438)
(0 0 26.1438)
(0 0 26.1438)
(0 0 26.1438)
(0 0 26.1438)
(0 0 26.1438)
(0 0 26.1438)
(0 0 26.1438)
(0 0 26.1438)
(0 0 26.1438)
(0 0 26.1438)
(0 0 26.1438)
(0 0 26.1438)
(0 0 26.1438)
(0 0 26.1438)
(0 0 26.1438)
(0 0 26.1438)
(0 0 26.1438)
(0 0 26.1438)
(0 0 26.1438)
(0 0 26.1438)
(0 0 26.1438)
(0 0 26.1438)
(0 0 26.1438)
(0 0 26.1438)
(0 0 26.1438)
(0 0 26.1438)
(0 0 26.1438)
(0 0 26.1438)
(0 0 26.1438)
(0 0 26.1438)
(0 0 26.1438)
(0 0 26.1438)
(0 0 26.1438)
(0 0 26.1438)
(0 0 26.1438)
(0 0 26.1438)
(0 0 26.1438)
(0 0 26.1438)
(0 0 26.1437)
(0 0 26.1437)
(0 0 26.1436)
(0 0 26.1435)
(0 0 26.1434)
(0 0 26.1432)
(0 0 26.1426)
(0 0 26.1415)
(0 0 26.1437)
(0 0 26.1557)
(0 0 26.1232)
(0 0 26.0532)
(0 0 26.3614)
(0 0 26.0089)
(0 0 18.6819)
(0 0 22.7198)
(0 0 21.7706)
(0 0 24.0054)
(0 0 24.6913)
(0 0 25.0141)
(0 0 25.3708)
(0 0 25.6777)
(0 0 25.9002)
(0 0 26.0572)
(0 0 26.1693)
(0 0 26.2492)
(0 0 26.3057)
(0 0 26.3452)
(0 0 26.3724)
(0 0 26.3911)
(0 0 26.4037)
(0 0 26.4121)
(0 0 26.4177)
(0 0 26.4214)
(0 0 26.4239)
(0 0 26.4254)
(0 0 26.4264)
(0 0 26.4271)
(0 0 26.4275)
(0 0 26.4278)
(0 0 26.4279)
(0 0 26.428)
(0 0 26.4281)
(0 0 26.4281)
(0 0 26.4282)
(0 0 26.4282)
(0 0 26.4282)
(0 0 26.4282)
(0 0 26.4282)
(0 0 26.4282)
(0 0 26.4282)
(0 0 26.4282)
(0 0 26.4282)
(0 0 26.4282)
(0 0 26.4282)
(0 0 26.4282)
(0 0 26.4282)
(0 0 26.4282)
(0 0 26.4282)
(0 0 26.4282)
(0 0 26.4282)
(0 0 26.4282)
(0 0 26.4282)
(0 0 26.4282)
(0 0 26.4282)
(0 0 26.4282)
(0 0 26.4282)
(0 0 26.4282)
(0 0 26.4282)
(0 0 26.4282)
(0 0 26.4282)
(0 0 26.4282)
(0 0 26.4282)
(0 0 26.4282)
(0 0 26.4282)
(0 0 26.4282)
(0 0 26.4282)
(0 0 26.4282)
(0 0 26.4282)
(0 0 26.4282)
(0 0 26.4282)
(0 0 26.4282)
(0 0 26.4282)
(0 0 26.4282)
(0 0 26.4282)
(0 0 26.4282)
(0 0 26.4282)
(0 0 26.4282)
(0 0 26.4282)
(0 0 26.4282)
(0 0 26.4282)
(0 0 26.4282)
(0 0 26.4282)
(0 0 26.4282)
(0 0 26.4282)
(0 0 26.4282)
(0 0 26.4282)
(0 0 26.4282)
(0 0 26.4281)
(0 0 26.4281)
(0 0 26.428)
(0 0 26.428)
(0 0 26.4279)
(0 0 26.4277)
(0 0 26.4275)
(0 0 26.4273)
(0 0 26.4266)
(0 0 26.4254)
(0 0 26.4277)
(0 0 26.4399)
(0 0 26.4069)
(0 0 26.3374)
(0 0 26.6475)
(0 0 26.2942)
(0 0 18.6034)
(0 0 22.5081)
(0 0 21.5109)
(0 0 23.7534)
(0 0 24.479)
(0 0 24.8609)
(0 0 25.2847)
(0 0 25.6551)
(0 0 25.9309)
(0 0 26.1299)
(0 0 26.2737)
(0 0 26.377)
(0 0 26.4502)
(0 0 26.5014)
(0 0 26.5368)
(0 0 26.5609)
(0 0 26.5773)
(0 0 26.5882)
(0 0 26.5955)
(0 0 26.6003)
(0 0 26.6034)
(0 0 26.6054)
(0 0 26.6067)
(0 0 26.6076)
(0 0 26.6081)
(0 0 26.6084)
(0 0 26.6086)
(0 0 26.6088)
(0 0 26.6089)
(0 0 26.6089)
(0 0 26.6089)
(0 0 26.609)
(0 0 26.609)
(0 0 26.609)
(0 0 26.609)
(0 0 26.609)
(0 0 26.609)
(0 0 26.609)
(0 0 26.609)
(0 0 26.609)
(0 0 26.609)
(0 0 26.609)
(0 0 26.609)
(0 0 26.609)
(0 0 26.609)
(0 0 26.609)
(0 0 26.609)
(0 0 26.609)
(0 0 26.609)
(0 0 26.609)
(0 0 26.609)
(0 0 26.609)
(0 0 26.609)
(0 0 26.609)
(0 0 26.609)
(0 0 26.609)
(0 0 26.609)
(0 0 26.609)
(0 0 26.609)
(0 0 26.609)
(0 0 26.609)
(0 0 26.609)
(0 0 26.609)
(0 0 26.609)
(0 0 26.609)
(0 0 26.609)
(0 0 26.609)
(0 0 26.609)
(0 0 26.609)
(0 0 26.609)
(0 0 26.609)
(0 0 26.609)
(0 0 26.609)
(0 0 26.609)
(0 0 26.609)
(0 0 26.609)
(0 0 26.609)
(0 0 26.609)
(0 0 26.609)
(0 0 26.609)
(0 0 26.609)
(0 0 26.609)
(0 0 26.609)
(0 0 26.6089)
(0 0 26.6089)
(0 0 26.6089)
(0 0 26.6088)
(0 0 26.6087)
(0 0 26.6086)
(0 0 26.6084)
(0 0 26.6082)
(0 0 26.6078)
(0 0 26.6071)
(0 0 26.6059)
(0 0 26.6083)
(0 0 26.6205)
(0 0 26.5873)
(0 0 26.5184)
(0 0 26.8298)
(0 0 26.4755)
(0 0 18.5413)
(0 0 22.3368)
(0 0 21.2878)
(0 0 23.5212)
(0 0 24.2688)
(0 0 24.6932)
(0 0 25.1699)
(0 0 25.5926)
(0 0 25.9135)
(0 0 26.1485)
(0 0 26.3198)
(0 0 26.4434)
(0 0 26.5313)
(0 0 26.5928)
(0 0 26.6353)
(0 0 26.6643)
(0 0 26.684)
(0 0 26.6971)
(0 0 26.7058)
(0 0 26.7115)
(0 0 26.7153)
(0 0 26.7177)
(0 0 26.7193)
(0 0 26.7203)
(0 0 26.7209)
(0 0 26.7213)
(0 0 26.7216)
(0 0 26.7217)
(0 0 26.7218)
(0 0 26.7219)
(0 0 26.7219)
(0 0 26.7219)
(0 0 26.722)
(0 0 26.722)
(0 0 26.722)
(0 0 26.722)
(0 0 26.722)
(0 0 26.722)
(0 0 26.722)
(0 0 26.722)
(0 0 26.722)
(0 0 26.722)
(0 0 26.722)
(0 0 26.722)
(0 0 26.722)
(0 0 26.722)
(0 0 26.722)
(0 0 26.722)
(0 0 26.722)
(0 0 26.722)
(0 0 26.722)
(0 0 26.722)
(0 0 26.722)
(0 0 26.722)
(0 0 26.722)
(0 0 26.722)
(0 0 26.722)
(0 0 26.722)
(0 0 26.722)
(0 0 26.722)
(0 0 26.722)
(0 0 26.722)
(0 0 26.722)
(0 0 26.722)
(0 0 26.722)
(0 0 26.722)
(0 0 26.722)
(0 0 26.722)
(0 0 26.722)
(0 0 26.722)
(0 0 26.722)
(0 0 26.722)
(0 0 26.722)
(0 0 26.722)
(0 0 26.722)
(0 0 26.722)
(0 0 26.722)
(0 0 26.722)
(0 0 26.722)
(0 0 26.722)
(0 0 26.722)
(0 0 26.722)
(0 0 26.7219)
(0 0 26.7219)
(0 0 26.7219)
(0 0 26.7218)
(0 0 26.7217)
(0 0 26.7216)
(0 0 26.7215)
(0 0 26.7213)
(0 0 26.721)
(0 0 26.7206)
(0 0 26.7198)
(0 0 26.7186)
(0 0 26.721)
(0 0 26.7334)
(0 0 26.7)
(0 0 26.6317)
(0 0 26.9441)
(0 0 26.5887)
(0 0 18.4943)
(0 0 22.2045)
(0 0 21.1081)
(0 0 23.3251)
(0 0 24.0829)
(0 0 24.5369)
(0 0 25.0538)
(0 0 25.5177)
(0 0 25.8749)
(0 0 26.1394)
(0 0 26.3334)
(0 0 26.4739)
(0 0 26.5739)
(0 0 26.644)
(0 0 26.6925)
(0 0 26.7256)
(0 0 26.7479)
(0 0 26.7629)
(0 0 26.7728)
(0 0 26.7794)
(0 0 26.7836)
(0 0 26.7864)
(0 0 26.7882)
(0 0 26.7893)
(0 0 26.79)
(0 0 26.7905)
(0 0 26.7908)
(0 0 26.7909)
(0 0 26.7911)
(0 0 26.7911)
(0 0 26.7912)
(0 0 26.7912)
(0 0 26.7912)
(0 0 26.7912)
(0 0 26.7912)
(0 0 26.7912)
(0 0 26.7912)
(0 0 26.7912)
(0 0 26.7912)
(0 0 26.7912)
(0 0 26.7912)
(0 0 26.7912)
(0 0 26.7912)
(0 0 26.7912)
(0 0 26.7912)
(0 0 26.7912)
(0 0 26.7912)
(0 0 26.7912)
(0 0 26.7912)
(0 0 26.7912)
(0 0 26.7912)
(0 0 26.7912)
(0 0 26.7912)
(0 0 26.7912)
(0 0 26.7912)
(0 0 26.7912)
(0 0 26.7912)
(0 0 26.7912)
(0 0 26.7912)
(0 0 26.7912)
(0 0 26.7912)
(0 0 26.7912)
(0 0 26.7912)
(0 0 26.7912)
(0 0 26.7912)
(0 0 26.7912)
(0 0 26.7912)
(0 0 26.7912)
(0 0 26.7912)
(0 0 26.7912)
(0 0 26.7912)
(0 0 26.7912)
(0 0 26.7912)
(0 0 26.7912)
(0 0 26.7912)
(0 0 26.7912)
(0 0 26.7912)
(0 0 26.7912)
(0 0 26.7912)
(0 0 26.7912)
(0 0 26.7912)
(0 0 26.7912)
(0 0 26.7912)
(0 0 26.7912)
(0 0 26.7911)
(0 0 26.7911)
(0 0 26.791)
(0 0 26.7908)
(0 0 26.7907)
(0 0 26.7904)
(0 0 26.7901)
(0 0 26.7897)
(0 0 26.7889)
(0 0 26.7876)
(0 0 26.7901)
(0 0 26.8026)
(0 0 26.7691)
(0 0 26.7013)
(0 0 27.0144)
(0 0 26.6579)
(0 0 18.4605)
(0 0 22.1084)
(0 0 20.9739)
(0 0 23.1736)
(0 0 23.935)
(0 0 24.4085)
(0 0 24.9541)
(0 0 25.4486)
(0 0 25.8332)
(0 0 26.1201)
(0 0 26.3316)
(0 0 26.485)
(0 0 26.5944)
(0 0 26.6712)
(0 0 26.7243)
(0 0 26.7605)
(0 0 26.785)
(0 0 26.8014)
(0 0 26.8123)
(0 0 26.8194)
(0 0 26.8241)
(0 0 26.8271)
(0 0 26.829)
(0 0 26.8303)
(0 0 26.8311)
(0 0 26.8316)
(0 0 26.8319)
(0 0 26.8321)
(0 0 26.8322)
(0 0 26.8323)
(0 0 26.8323)
(0 0 26.8324)
(0 0 26.8324)
(0 0 26.8324)
(0 0 26.8324)
(0 0 26.8324)
(0 0 26.8324)
(0 0 26.8324)
(0 0 26.8324)
(0 0 26.8324)
(0 0 26.8324)
(0 0 26.8324)
(0 0 26.8324)
(0 0 26.8324)
(0 0 26.8324)
(0 0 26.8324)
(0 0 26.8324)
(0 0 26.8324)
(0 0 26.8324)
(0 0 26.8324)
(0 0 26.8324)
(0 0 26.8324)
(0 0 26.8324)
(0 0 26.8324)
(0 0 26.8324)
(0 0 26.8324)
(0 0 26.8324)
(0 0 26.8324)
(0 0 26.8324)
(0 0 26.8324)
(0 0 26.8324)
(0 0 26.8324)
(0 0 26.8324)
(0 0 26.8324)
(0 0 26.8324)
(0 0 26.8324)
(0 0 26.8324)
(0 0 26.8324)
(0 0 26.8324)
(0 0 26.8324)
(0 0 26.8324)
(0 0 26.8324)
(0 0 26.8324)
(0 0 26.8324)
(0 0 26.8324)
(0 0 26.8324)
(0 0 26.8324)
(0 0 26.8324)
(0 0 26.8324)
(0 0 26.8324)
(0 0 26.8324)
(0 0 26.8324)
(0 0 26.8324)
(0 0 26.8323)
(0 0 26.8323)
(0 0 26.8322)
(0 0 26.8321)
(0 0 26.832)
(0 0 26.8318)
(0 0 26.8315)
(0 0 26.8312)
(0 0 26.8307)
(0 0 26.8299)
(0 0 26.8286)
(0 0 26.8312)
(0 0 26.8437)
(0 0 26.8102)
(0 0 26.7428)
(0 0 27.0562)
(0 0 26.699)
(0 0 18.4384)
(0 0 22.0455)
(0 0 20.8849)
(0 0 23.0711)
(0 0 23.8329)
(0 0 24.318)
(0 0 24.8821)
(0 0 25.3968)
(0 0 25.7998)
(0 0 26.1018)
(0 0 26.3251)
(0 0 26.4874)
(0 0 26.6032)
(0 0 26.6845)
(0 0 26.7407)
(0 0 26.7791)
(0 0 26.8051)
(0 0 26.8224)
(0 0 26.8339)
(0 0 26.8415)
(0 0 26.8464)
(0 0 26.8496)
(0 0 26.8517)
(0 0 26.853)
(0 0 26.8539)
(0 0 26.8544)
(0 0 26.8547)
(0 0 26.8549)
(0 0 26.8551)
(0 0 26.8551)
(0 0 26.8552)
(0 0 26.8552)
(0 0 26.8552)
(0 0 26.8552)
(0 0 26.8553)
(0 0 26.8553)
(0 0 26.8553)
(0 0 26.8553)
(0 0 26.8553)
(0 0 26.8553)
(0 0 26.8553)
(0 0 26.8553)
(0 0 26.8553)
(0 0 26.8553)
(0 0 26.8553)
(0 0 26.8553)
(0 0 26.8553)
(0 0 26.8553)
(0 0 26.8553)
(0 0 26.8553)
(0 0 26.8553)
(0 0 26.8553)
(0 0 26.8553)
(0 0 26.8553)
(0 0 26.8553)
(0 0 26.8553)
(0 0 26.8553)
(0 0 26.8553)
(0 0 26.8553)
(0 0 26.8553)
(0 0 26.8553)
(0 0 26.8553)
(0 0 26.8553)
(0 0 26.8553)
(0 0 26.8553)
(0 0 26.8553)
(0 0 26.8553)
(0 0 26.8553)
(0 0 26.8553)
(0 0 26.8553)
(0 0 26.8553)
(0 0 26.8553)
(0 0 26.8553)
(0 0 26.8553)
(0 0 26.8553)
(0 0 26.8553)
(0 0 26.8553)
(0 0 26.8553)
(0 0 26.8553)
(0 0 26.8552)
(0 0 26.8552)
(0 0 26.8552)
(0 0 26.8552)
(0 0 26.8552)
(0 0 26.8551)
(0 0 26.8551)
(0 0 26.855)
(0 0 26.8548)
(0 0 26.8546)
(0 0 26.8543)
(0 0 26.854)
(0 0 26.8535)
(0 0 26.8526)
(0 0 26.8514)
(0 0 26.854)
(0 0 26.8666)
(0 0 26.8331)
(0 0 26.7659)
(0 0 27.0796)
(0 0 26.7218)
(0 0 18.4274)
(0 0 22.0144)
(0 0 20.8408)
(0 0 23.0195)
(0 0 23.7809)
(0 0 24.2714)
(0 0 24.8446)
(0 0 25.3693)
(0 0 25.7815)
(0 0 26.0912)
(0 0 26.3204)
(0 0 26.4871)
(0 0 26.6062)
(0 0 26.6898)
(0 0 26.7476)
(0 0 26.7871)
(0 0 26.8138)
(0 0 26.8317)
(0 0 26.8435)
(0 0 26.8513)
(0 0 26.8564)
(0 0 26.8596)
(0 0 26.8618)
(0 0 26.8631)
(0 0 26.864)
(0 0 26.8645)
(0 0 26.8649)
(0 0 26.8651)
(0 0 26.8652)
(0 0 26.8653)
(0 0 26.8653)
(0 0 26.8654)
(0 0 26.8654)
(0 0 26.8654)
(0 0 26.8654)
(0 0 26.8654)
(0 0 26.8654)
(0 0 26.8654)
(0 0 26.8654)
(0 0 26.8654)
(0 0 26.8654)
(0 0 26.8654)
(0 0 26.8654)
(0 0 26.8654)
(0 0 26.8654)
(0 0 26.8654)
(0 0 26.8654)
(0 0 26.8654)
(0 0 26.8654)
(0 0 26.8654)
(0 0 26.8654)
(0 0 26.8654)
(0 0 26.8654)
(0 0 26.8654)
(0 0 26.8654)
(0 0 26.8654)
(0 0 26.8654)
(0 0 26.8654)
(0 0 26.8654)
(0 0 26.8654)
(0 0 26.8654)
(0 0 26.8654)
(0 0 26.8654)
(0 0 26.8654)
(0 0 26.8654)
(0 0 26.8654)
(0 0 26.8654)
(0 0 26.8654)
(0 0 26.8654)
(0 0 26.8654)
(0 0 26.8654)
(0 0 26.8654)
(0 0 26.8654)
(0 0 26.8654)
(0 0 26.8654)
(0 0 26.8654)
(0 0 26.8654)
(0 0 26.8654)
(0 0 26.8654)
(0 0 26.8654)
(0 0 26.8654)
(0 0 26.8654)
(0 0 26.8654)
(0 0 26.8653)
(0 0 26.8653)
(0 0 26.8652)
(0 0 26.8651)
(0 0 26.8649)
(0 0 26.8647)
(0 0 26.8645)
(0 0 26.8641)
(0 0 26.8636)
(0 0 26.8627)
(0 0 26.8615)
(0 0 26.8641)
(0 0 26.8767)
(0 0 26.8432)
(0 0 26.7762)
(0 0 27.09)
(0 0 26.7319)
(0 0 18.4274)
(0 0 22.0144)
(0 0 20.8408)
(0 0 23.0195)
(0 0 23.7809)
(0 0 24.2714)
(0 0 24.8446)
(0 0 25.3693)
(0 0 25.7815)
(0 0 26.0912)
(0 0 26.3204)
(0 0 26.4871)
(0 0 26.6062)
(0 0 26.6898)
(0 0 26.7476)
(0 0 26.7871)
(0 0 26.8138)
(0 0 26.8317)
(0 0 26.8435)
(0 0 26.8513)
(0 0 26.8564)
(0 0 26.8596)
(0 0 26.8618)
(0 0 26.8631)
(0 0 26.864)
(0 0 26.8645)
(0 0 26.8649)
(0 0 26.8651)
(0 0 26.8652)
(0 0 26.8653)
(0 0 26.8653)
(0 0 26.8654)
(0 0 26.8654)
(0 0 26.8654)
(0 0 26.8654)
(0 0 26.8654)
(0 0 26.8654)
(0 0 26.8654)
(0 0 26.8654)
(0 0 26.8654)
(0 0 26.8654)
(0 0 26.8654)
(0 0 26.8654)
(0 0 26.8654)
(0 0 26.8654)
(0 0 26.8654)
(0 0 26.8654)
(0 0 26.8654)
(0 0 26.8654)
(0 0 26.8654)
(0 0 26.8654)
(0 0 26.8654)
(0 0 26.8654)
(0 0 26.8654)
(0 0 26.8654)
(0 0 26.8654)
(0 0 26.8654)
(0 0 26.8654)
(0 0 26.8654)
(0 0 26.8654)
(0 0 26.8654)
(0 0 26.8654)
(0 0 26.8654)
(0 0 26.8654)
(0 0 26.8654)
(0 0 26.8654)
(0 0 26.8654)
(0 0 26.8654)
(0 0 26.8654)
(0 0 26.8654)
(0 0 26.8654)
(0 0 26.8654)
(0 0 26.8654)
(0 0 26.8654)
(0 0 26.8654)
(0 0 26.8654)
(0 0 26.8654)
(0 0 26.8654)
(0 0 26.8654)
(0 0 26.8654)
(0 0 26.8654)
(0 0 26.8654)
(0 0 26.8654)
(0 0 26.8653)
(0 0 26.8653)
(0 0 26.8652)
(0 0 26.8651)
(0 0 26.8649)
(0 0 26.8647)
(0 0 26.8645)
(0 0 26.8641)
(0 0 26.8636)
(0 0 26.8627)
(0 0 26.8615)