/*--------------------------------*- C++ -*----------------------------------*\
| =========                 |                                                 |
| \\      /  F ield         | foam-extend: Open Source CFD                    |
|  \\    /   O peration     | Version:     5.0                                |
|   \\  /    A nd           | Web:         http://www.foam-extend.org         |
|    \\/     M anipulation  |                                                 |
\*---------------------------------------------------------------------------*/
FoamFile
{
    version     2.0;
    format      ascii;
    class       surfaceScalarField;
    location    "0.015";
    object      phi;
}
// * * * * * * * * * * * * * * * * * * * * * * * * * * * * * * * * * * * * * //

dimensions      [0 3 -1 0 0 0 0];

internalField   nonuniform List<scalar> 
7860
(
0.00411222
0.000887779
0.00377843
0.00033379
0.00389086
-0.000112428
0.00417609
-0.000285232
0.0043957
-0.000219614
0.00453394
-0.000138232
0.00463291
-9.89732e-05
0.00471103
-7.8118e-05
0.00477242
-6.13943e-05
0.0048195
-4.70748e-05
0.00485498
-3.54799e-05
0.00488137
-2.63932e-05
0.00490077
-1.93968e-05
0.00491485
-1.40837e-05
0.00492495
-1.01018e-05
0.00493212
-7.16279e-06
0.00493714
-5.02297e-06
0.00494062
-3.48629e-06
0.00494302
-2.39617e-06
0.00494465
-1.63219e-06
0.00494576
-1.1023e-06
0.00494649
-7.38604e-07
0.00494699
-4.91183e-07
0.00494731
-3.24398e-07
0.00494752
-2.12805e-07
0.00494766
-1.38732e-07
0.00494775
-8.99071e-08
0.00494781
-5.79265e-08
0.00494785
-3.71104e-08
0.00494787
-2.36429e-08
0.00494789
-1.49706e-08
0.0049479
-9.42064e-09
0.0049479
-5.88568e-09
0.0049479
-3.644e-09
0.00494791
-2.23081e-09
0.00494791
-1.34093e-09
0.00494791
-7.85549e-10
0.00494791
-4.40511e-10
0.00494791
-2.28549e-10
0.00494791
-9.52555e-11
0.00494791
-1.63095e-11
0.00494791
2.85925e-11
0.00494791
5.79503e-11
0.00494791
7.3639e-11
0.00494791
8.18195e-11
0.00494791
8.55416e-11
0.00494791
8.65119e-11
0.00494791
8.58421e-11
0.00494791
8.38853e-11
0.00494791
8.08558e-11
0.00494791
8.34415e-11
0.00494791
7.89489e-11
0.00494791
6.83531e-11
0.00494791
7.92655e-11
0.00494791
7.5427e-11
0.00494791
6.45527e-11
0.00494791
6.30196e-11
0.00494791
5.67828e-11
0.00494791
5.53775e-11
0.00494791
5.6027e-11
0.00494791
5.31447e-11
0.00494791
4.64312e-11
0.00494791
4.33367e-11
0.00494791
3.93746e-11
0.00494791
3.5472e-11
0.00494791
3.17523e-11
0.00494791
2.84178e-11
0.00494791
2.60709e-11
0.00494791
2.5353e-11
0.00494791
2.74826e-11
0.00494791
3.4312e-11
0.00494791
4.8778e-11
0.00494791
7.5243e-11
0.00494791
1.20511e-10
0.00494791
1.94805e-10
0.00494791
3.12942e-10
0.00494791
4.97464e-10
0.00494791
7.80755e-10
0.00494791
1.20869e-09
0.00494791
1.84587e-09
0.0049479
2.7812e-09
0.0049479
4.13242e-09
0.00494789
6.05395e-09
0.00494788
8.73715e-09
0.00494787
1.24127e-08
0.00494786
1.73374e-08
0.00494783
2.37884e-08
0.0049478
3.20505e-08
0.00494776
4.25659e-08
0.0049477
5.63696e-08
0.00494763
7.45896e-08
0.00494754
8.69655e-08
0.0049475
3.88412e-08
0.00494758
-8.0607e-08
0.00494713
4.49756e-07
0.00494423
2.90382e-06
0.00494326
9.68969e-07
0.00496543
-2.2167e-05
0.00494222
2.32041e-05
4.20249e-05
0.00704366
-0.00115588
0.00768657
-0.000309123
0.00818614
-0.000611994
0.00876358
-0.000862674
0.00926023
-0.000716266
0.0096239
-0.000501905
0.00988899
-0.000364062
0.0100889
-0.000278063
0.0102414
-0.000213888
0.0103569
-0.000162531
0.0104432
-0.000121827
0.010507
-9.01326e-05
0.0105534
-6.58683e-05
0.0105869
-4.75627e-05
0.0106108
-3.39429e-05
0.0106276
-2.39544e-05
0.0106393
-1.67263e-05
0.0106473
-1.15628e-05
0.0106529
-7.91825e-06
0.0106566
-5.37499e-06
0.0106591
-3.61846e-06
0.0106608
-2.4172e-06
0.0106619
-1.60297e-06
0.0106626
-1.05578e-06
0.0106631
-6.90858e-07
0.0106634
-4.49307e-07
0.0106636
-2.90489e-07
0.0106638
-1.86745e-07
0.0106638
-1.19379e-07
0.0106639
-7.58859e-08
0.0106639
-4.79494e-08
0.0106639
-3.01049e-08
0.010664
-1.87624e-08
0.010664
-1.15841e-08
0.010664
-7.06657e-09
0.010664
-4.22945e-09
0.010664
-2.46185e-09
0.010664
-1.36614e-09
0.010664
-6.93452e-10
0.010664
-2.75059e-10
0.010664
-2.66088e-11
0.010664
1.15875e-10
0.010664
2.05217e-10
0.010664
2.53017e-10
0.010664
2.77253e-10
0.010664
2.87368e-10
0.010664
2.8897e-10
0.010664
2.85368e-10
0.010664
2.7827e-10
0.010664
2.69686e-10
0.010664
2.64389e-10
0.010664
2.59439e-10
0.010664
2.47361e-10
0.010664
2.49307e-10
0.010664
2.3153e-10
0.010664
2.11243e-10
0.010664
2.04077e-10
0.010664
1.8665e-10
0.010664
1.79328e-10
0.010664
1.76529e-10
0.010664
1.64186e-10
0.010664
1.45273e-10
0.010664
1.32977e-10
0.010664
1.1821e-10
0.010664
1.03813e-10
0.010664
8.9784e-11
0.010664
7.68812e-11
0.010664
6.67691e-11
0.010664
6.17508e-11
0.010664
6.55793e-11
0.010664
8.43893e-11
0.010664
1.27508e-10
0.010664
2.09323e-10
0.010664
3.51848e-10
0.010664
5.88567e-10
0.010664
9.6864e-10
0.010664
1.56612e-09
0.010664
2.48899e-09
0.010664
3.89117e-09
0.010664
5.9905e-09
0.010664
9.08983e-09
0.010664
1.35967e-08
0.0106639
2.00493e-08
0.0106639
2.91309e-08
0.0106639
4.16802e-08
0.0106639
5.86714e-08
0.0106638
8.11865e-08
0.0106637
1.10357e-07
0.0106636
1.47444e-07
0.0106635
1.93952e-07
0.0106633
2.49391e-07
0.0106631
2.9468e-07
0.0106629
2.69427e-07
0.0106625
2.98013e-07
0.0106613
1.65515e-06
0.0106589
5.24482e-06
0.0106617
-1.82283e-06
0.0106781
-3.85385e-05
0.0106492
5.20591e-05
8.10168e-05
0.0074601
-0.00361598
0.00886166
-0.00171069
0.00978149
-0.00153182
0.0105385
-0.00161969
0.011154
-0.00133172
0.011626
-0.000973945
0.0119798
-0.000717841
0.0122453
-0.000543566
0.0124447
-0.000413317
0.0125936
-0.000311459
0.0127038
-0.000231961
0.0127843
-0.000170639
0.0128425
-0.000124045
0.012884
-8.91302e-05
0.0129134
-6.332e-05
0.0129339
-4.45006e-05
0.0129482
-3.09546e-05
0.0129579
-2.13237e-05
0.0129646
-1.45555e-05
0.012969
-9.85097e-06
0.012972
-6.61347e-06
0.012974
-4.40657e-06
0.0129753
-2.91528e-06
0.0129762
-1.91581e-06
0.0129768
-1.25101e-06
0.0129771
-8.12023e-07
0.0129774
-5.24008e-07
0.0129775
-3.36265e-07
0.0129776
-2.14597e-07
0.0129777
-1.36184e-07
0.0129777
-8.59109e-08
0.0129777
-5.38496e-08
0.0129777
-3.35026e-08
0.0129778
-2.06449e-08
0.0129778
-1.25645e-08
0.0129778
-7.49921e-09
0.0129778
-4.3481e-09
0.0129778
-2.39799e-09
0.0129778
-1.20195e-09
0.0129778
-4.63736e-10
0.0129778
-2.49118e-11
0.0129778
2.27949e-10
0.0129778
3.81843e-10
0.0129778
4.6364e-10
0.0129778
5.03926e-10
0.0129778
5.19289e-10
0.0129778
5.19761e-10
0.0129778
5.11168e-10
0.0129778
4.96904e-10
0.0129778
4.80546e-10
0.0129778
4.6154e-10
0.0129778
4.59209e-10
0.0129778
4.58326e-10
0.0129778
4.20723e-10
0.0129778
3.8267e-10
0.0129778
3.70116e-10
0.0129778
3.52738e-10
0.0129778
3.24537e-10
0.0129778
3.07221e-10
0.0129778
2.93598e-10
0.0129778
2.66696e-10
0.0129778
2.37216e-10
0.0129778
2.10291e-10
0.0129778
1.8095e-10
0.0129778
1.52018e-10
0.0129778
1.23388e-10
0.0129778
9.64889e-11
0.0129778
7.41541e-11
0.0129778
6.06316e-11
0.0129778
6.26094e-11
0.0129778
9.11895e-11
0.0129778
1.63141e-10
0.0129778
3.04605e-10
0.0129778
5.55487e-10
0.0129778
9.76671e-10
0.0129778
1.65862e-09
0.0129778
2.73678e-09
0.0129778
4.41003e-09
0.0129778
6.96431e-09
0.0129778
1.0806e-08
0.0129777
1.65041e-08
0.0129777
2.48328e-08
0.0129777
3.68227e-08
0.0129777
5.38028e-08
0.0129777
7.74298e-08
0.0129776
1.09675e-07
0.0129775
1.52781e-07
0.0129774
2.09151e-07
0.0129773
2.81325e-07
0.0129771
3.71851e-07
0.0129769
4.80601e-07
0.0129766
5.89177e-07
0.0129762
6.52619e-07
0.0129756
8.70797e-07
0.0129747
2.59317e-06
0.0129739
6.03629e-06
0.012976
-3.90001e-06
0.0129781
-4.06913e-05
0.0129664
6.38407e-05
9.0751e-05
0.00688606
-0.00550203
0.00839154
-0.00321616
0.00950151
-0.00264179
0.0103318
-0.00244995
0.0109756
-0.00197553
0.0114772
-0.0014756
0.011861
-0.00110159
0.0121503
-0.000832895
0.0123665
-0.000629492
0.0125266
-0.000471616
0.0126441
-0.000349459
0.0127294
-0.000255894
0.0127906
-0.000185231
0.012834
-0.000132566
0.0128645
-9.38324e-05
0.0128858
-6.5721e-05
0.0129004
-4.55732e-05
0.0129104
-3.13041e-05
0.0129171
-2.1312e-05
0.0129216
-1.43886e-05
0.0129247
-9.63827e-06
0.0129267
-6.4087e-06
0.012928
-4.23172e-06
0.0129289
-2.77595e-06
0.0129294
-1.80966e-06
0.0129298
-1.17279e-06
0.01293
-7.55707e-07
0.0129302
-4.8427e-07
0.0129302
-3.08637e-07
0.0129303
-1.9561e-07
0.0129303
-1.23246e-07
0.0129304
-7.71543e-08
0.0129304
-4.79377e-08
0.0129304
-2.94961e-08
0.0129304
-1.79188e-08
0.0129304
-1.06724e-08
0.0129304
-6.16947e-09
0.0129304
-3.38602e-09
0.0129304
-1.67957e-09
0.0129304
-6.35538e-10
0.0129304
-1.23382e-11
0.0129304
3.50419e-10
0.0129304
5.6312e-10
0.0129304
6.75919e-10
0.0129304
7.30067e-10
0.0129304
7.48946e-10
0.0129304
7.46822e-10
0.0129304
7.3206e-10
0.0129304
7.09775e-10
0.0129304
6.84783e-10
0.0129304
6.57487e-10
0.0129304
6.51342e-10
0.0129304
6.43203e-10
0.0129304
5.7239e-10
0.0129304
5.27203e-10
0.0129304
5.17285e-10
0.0129304
4.86718e-10
0.0129304
4.57501e-10
0.0129304
4.24539e-10
0.0129304
3.82683e-10
0.0129304
3.46905e-10
0.0129304
3.1274e-10
0.0129304
2.65547e-10
0.0129304
2.1994e-10
0.0129304
1.74575e-10
0.0129304
1.29247e-10
0.0129304
8.60433e-11
0.0129304
4.89375e-11
0.0129304
2.4075e-11
0.0129304
2.11186e-11
0.0129304
5.6006e-11
0.0129304
1.52949e-10
0.0129304
3.4975e-10
0.0129304
7.04233e-10
0.0129304
1.30467e-09
0.0129304
2.28339e-09
0.0129304
3.83793e-09
0.0129304
6.25925e-09
0.0129304
9.96879e-09
0.0129304
1.55678e-08
0.0129304
2.39016e-08
0.0129304
3.61297e-08
0.0129304
5.38065e-08
0.0129303
7.89553e-08
0.0129303
1.14127e-07
0.0129302
1.62401e-07
0.0129302
2.27332e-07
0.0129301
3.128e-07
0.0129299
4.22904e-07
0.0129297
5.61836e-07
0.0129295
7.3163e-07
0.0129292
9.18251e-07
0.0129287
1.08446e-06
0.0129282
1.41488e-06
0.0129277
3.10188e-06
0.0129276
6.09194e-06
0.0129275
-3.78544e-06
0.012922
-3.51666e-05
0.0129251
6.07256e-05
8.07396e-05
0.00605392
-0.00655595
0.007253
-0.00441524
0.0082795
-0.00366829
0.00906184
-0.0032323
0.00967041
-0.0025841
0.0101523
-0.00195746
0.0105271
-0.00147639
0.0108122
-0.00111802
0.0110257
-0.000843017
0.0111837
-0.000629578
0.0112992
-0.000464966
0.0113827
-0.000339393
0.0114424
-0.000244918
0.0114846
-0.000174769
0.0115141
-0.000123364
0.0115346
-8.61837e-05
0.0115486
-5.96211e-05
0.0115582
-4.08637e-05
0.0115646
-2.77643e-05
0.011569
-1.871e-05
0.0115718
-1.25115e-05
0.0115737
-8.30604e-06
0.011575
-5.47652e-06
0.0115758
-3.58765e-06
0.0115763
-2.33587e-06
0.0115767
-1.51202e-06
0.0115769
-9.7322e-07
0.011577
-6.22997e-07
0.0115771
-3.96646e-07
0.0115772
-2.51146e-07
0.0115772
-1.58091e-07
0.0115772
-9.8873e-08
0.0115772
-6.1368e-08
0.0115772
-3.77139e-08
0.0115772
-2.28744e-08
0.0115772
-1.36003e-08
0.0115772
-7.84073e-09
0.0115772
-4.28325e-09
0.0115772
-2.09982e-09
0.0115772
-7.83746e-10
0.0115772
1.17626e-11
0.0115772
4.8633e-10
0.0115772
7.46307e-10
0.0115772
8.86327e-10
0.0115772
9.52172e-10
0.0115772
9.73217e-10
0.0115772
9.6764e-10
0.0115772
9.46238e-10
0.0115772
9.15808e-10
0.0115772
8.82103e-10
0.0115772
8.47149e-10
0.0115772
8.35159e-10
0.0115772
8.10033e-10
0.0115772
7.11044e-10
0.0115772
6.68515e-10
0.0115772
6.59012e-10
0.0115772
6.16171e-10
0.0115772
5.79752e-10
0.0115772
5.26062e-10
0.0115772
4.60277e-10
0.0115772
4.1728e-10
0.0115772
3.77457e-10
0.0115772
3.09233e-10
0.0115772
2.46801e-10
0.0115772
1.84373e-10
0.0115772
1.21657e-10
0.0115772
6.1351e-11
0.0115772
8.39247e-12
0.0115772
-2.92467e-11
0.0115772
-3.90116e-11
0.0115772
-5.6089e-13
0.0115772
1.17358e-10
0.0115772
3.63499e-10
0.0115772
8.12606e-10
0.0115772
1.57879e-09
0.0115772
2.83403e-09
0.0115772
4.83483e-09
0.0115772
7.95964e-09
0.0115772
1.27595e-08
0.0115772
2.00228e-08
0.0115772
3.08611e-08
0.0115772
4.68069e-08
0.0115772
6.99245e-08
0.0115772
1.02918e-07
0.0115771
1.49217e-07
0.0115771
2.12998e-07
0.011577
2.99117e-07
0.0115769
4.12915e-07
0.0115768
5.60029e-07
0.0115766
7.46248e-07
0.0115764
9.75429e-07
0.011576
1.23576e-06
0.0115756
1.4875e-06
0.0115752
1.86903e-06
0.0115749
3.38953e-06
0.011575
5.96842e-06
0.0115739
-2.62184e-06
0.0115664
-2.77352e-05
0.0115777
4.94498e-05
6.2211e-05
0.00529383
-0.00684979
0.00603153
-0.00515294
0.00680743
-0.00444419
0.00744489
-0.00386975
0.00796287
-0.00310208
0.0083859
-0.00238048
0.00872247
-0.00181296
0.00898213
-0.00137768
0.00917808
-0.00103897
0.00932348
-0.000774976
0.00942979
-0.000571277
0.00950657
-0.000416169
0.00956134
-0.000299689
0.00959997
-0.000213403
0.00962694
-0.000150329
0.00964557
-0.00010482
0.00965833
-7.23829e-05
0.009667
-4.95274e-05
0.00967283
-3.35986e-05
0.00967673
-2.26093e-05
0.00967932
-1.50991e-05
0.00968103
-1.00117e-05
0.00968214
-6.59371e-06
0.00968287
-4.31503e-06
0.00968334
-2.80673e-06
0.00968365
-1.81514e-06
0.00968384
-1.16735e-06
0.00968396
-7.46664e-07
0.00968404
-4.74998e-07
0.00968409
-3.0053e-07
0.00968412
-1.89047e-07
0.00968414
-1.18143e-07
0.00968415
-7.32627e-08
0.00968416
-4.49733e-08
0.00968417
-2.72309e-08
0.00968417
-1.61659e-08
0.00968417
-9.29318e-09
0.00968417
-5.05074e-09
0.00968417
-2.44887e-09
0.00968417
-8.84161e-10
0.00968417
6.0991e-11
0.00968417
6.24683e-10
0.00968417
9.30416e-10
0.00968417
1.09365e-09
0.00968417
1.16874e-09
0.00968417
1.19062e-09
0.00968417
1.18095e-09
0.00968417
1.15272e-09
0.00968417
1.11426e-09
0.00968417
1.07205e-09
0.00968417
1.02988e-09
0.00968417
1.00474e-09
0.00968417
9.61711e-10
0.00968417
8.55233e-10
0.00968417
8.08693e-10
0.00968417
7.88885e-10
0.00968417
7.35657e-10
0.00968417
6.88606e-10
0.00968417
6.20643e-10
0.00968417
5.40204e-10
0.00968417
4.83594e-10
0.00968417
4.30088e-10
0.00968417
3.46898e-10
0.00968417
2.68032e-10
0.00968417
1.88583e-10
0.00968417
1.08526e-10
0.00968417
3.11254e-11
0.00968417
-3.8101e-11
0.00968417
-8.93695e-11
0.00968417
-1.07343e-10
0.00968417
-6.80583e-11
0.00968417
6.61299e-11
0.00968417
3.53761e-10
0.00968417
8.8474e-10
0.00968417
1.79635e-09
0.00968417
3.29598e-09
0.00968417
5.69324e-09
0.00968417
9.44556e-09
0.00968417
1.52206e-08
0.00968417
2.39764e-08
0.00968416
3.70656e-08
0.00968415
5.63597e-08
0.00968414
8.4388e-08
0.00968411
1.24476e-07
0.00968408
1.80856e-07
0.00968404
2.58702e-07
0.00968397
3.64045e-07
0.00968388
5.03515e-07
0.00968376
6.84042e-07
0.00968359
9.12524e-07
0.00968337
1.19336e-06
0.0096831
1.51356e-06
0.00968276
1.8249e-06
0.00968241
2.22013e-06
0.00968224
3.55591e-06
0.00968243
5.77772e-06
0.00968117
-1.35732e-06
0.00967458
-2.11456e-05
0.00968847
3.55607e-05
4.25808e-05
0.00473472
-0.00658451
0.00501772
-0.00543593
0.00548041
-0.00490689
0.00591913
-0.00430847
0.00630908
-0.00349204
0.00664582
-0.00271722
0.0069233
-0.00209044
0.00714207
-0.00159645
0.00730937
-0.00120627
0.00743436
-0.00089996
0.00752599
-0.000662913
0.00759226
-0.000482438
0.00763951
-0.000346941
0.0076728
-0.00024669
0.007696
-0.000173522
0.00771199
-0.000120817
0.00772293
-8.33158e-05
0.00773033
-5.69344e-05
0.00773531
-3.85771e-05
0.00773863
-2.59306e-05
0.00774083
-1.72994e-05
0.00774228
-1.14597e-05
0.00774323
-7.54072e-06
0.00774384
-4.93074e-06
0.00774424
-3.20478e-06
0.0077445
-2.07108e-06
0.00774466
-1.33106e-06
0.00774477
-8.5084e-07
0.00774483
-5.4094e-07
0.00774488
-3.42041e-07
0.0077449
-2.15031e-07
0.00774492
-1.3428e-07
0.00774493
-8.31927e-08
0.00774493
-5.1022e-08
0.00774494
-3.0849e-08
0.00774494
-1.82765e-08
0.00774494
-1.04708e-08
0.00774494
-5.65531e-09
0.00774494
-2.7051e-09
0.00774494
-9.30229e-10
0.00774494
1.38275e-10
0.00774494
7.71927e-10
0.00774494
1.11629e-09
0.00774494
1.29777e-09
0.00774494
1.37923e-09
0.00774494
1.40044e-09
0.00774494
1.38599e-09
0.00774494
1.3508e-09
0.00774494
1.30445e-09
0.00774494
1.25394e-09
0.00774494
1.20434e-09
0.00774494
1.16376e-09
0.00774494
1.10354e-09
0.00774494
9.97133e-10
0.00774494
9.44919e-10
0.00774494
9.11977e-10
0.00774494
8.48319e-10
0.00774494
7.88167e-10
0.00774494
7.08385e-10
0.00774494
6.17479e-10
0.00774494
5.47155e-10
0.00774494
4.78093e-10
0.00774494
3.8149e-10
0.00774494
2.86776e-10
0.00774494
1.90734e-10
0.00774494
9.37187e-11
0.00774494
-6.19766e-13
0.00774494
-8.60553e-11
0.00774494
-1.51453e-10
0.00774494
-1.79269e-10
0.00774494
-1.42268e-10
0.00774494
2.53883e-12
0.00774494
3.21947e-10
0.00774494
9.18689e-10
0.00774494
1.94967e-09
0.00774494
3.65213e-09
0.00774494
6.3808e-09
0.00774494
1.06603e-08
0.00774494
1.72573e-08
0.00774494
2.7274e-08
0.00774493
4.22693e-08
0.00774492
6.44038e-08
0.00774491
9.6604e-08
0.00774489
1.42725e-07
0.00774487
2.07684e-07
0.00774483
2.97495e-07
0.00774477
4.1916e-07
0.0077447
5.80332e-07
0.00774459
7.88847e-07
0.00774445
1.05204e-06
0.00774427
1.37337e-06
0.00774405
1.73586e-06
0.00774379
2.08086e-06
0.00774355
2.46673e-06
0.00774348
3.62656e-06
0.00774377
5.48612e-06
0.00774289
-4.82895e-07
0.00773802
-1.62673e-05
0.0077511
2.2477e-05
2.56966e-05
0.00439101
-0.00597552
0.00430634
-0.00535126
0.00446656
-0.00506711
0.0046926
-0.00453451
0.00493704
-0.00373647
0.00517181
-0.002952
0.00537705
-0.00229568
0.00554459
-0.00176399
0.00567534
-0.00133702
0.00577422
-0.00099884
0.00584723
-0.000735927
0.00590017
-0.000535377
0.00593794
-0.000384717
0.00596454
-0.000273288
0.00598305
-0.000192029
0.00599579
-0.000133561
0.00600449
-9.20077e-05
0.00601036
-6.28111e-05
0.0060143
-4.2519e-05
0.00601693
-2.85552e-05
0.00601866
-1.90348e-05
0.0060198
-1.25998e-05
0.00602055
-8.28517e-06
0.00602103
-5.414e-06
0.00602135
-3.51676e-06
0.00602155
-2.27139e-06
0.00602167
-1.45901e-06
0.00602175
-9.32141e-07
0.00602181
-5.92335e-07
0.00602184
-3.74338e-07
0.00602186
-2.35188e-07
0.00602187
-1.46776e-07
0.00602188
-9.08588e-08
0.00602188
-5.56639e-08
0.00602189
-3.36033e-08
0.00602189
-1.98581e-08
0.00602189
-1.1329e-08
0.00602189
-6.07018e-09
0.00602189
-2.8518e-09
0.00602189
-9.14452e-10
0.00602189
2.47566e-10
0.00602189
9.32153e-10
0.00602189
1.30515e-09
0.00602189
1.49892e-09
0.00602189
1.5834e-09
0.00602189
1.60219e-09
0.00602189
1.58219e-09
0.00602189
1.53983e-09
0.00602189
1.48566e-09
0.00602189
1.42698e-09
0.00602189
1.36947e-09
0.00602189
1.31363e-09
0.00602189
1.23815e-09
0.00602189
1.13358e-09
0.00602189
1.07511e-09
0.00602189
1.02895e-09
0.00602189
9.54864e-10
0.00602189
8.80901e-10
0.00602189
7.90406e-10
0.00602189
6.90867e-10
0.00602189
6.07911e-10
0.00602189
5.23594e-10
0.00602189
4.14203e-10
0.00602189
3.04341e-10
0.00602189
1.92319e-10
0.00602189
7.88784e-11
0.00602189
-3.20668e-11
0.00602189
-1.33666e-10
0.00602189
-2.13803e-10
0.00602189
-2.53256e-10
0.00602189
-2.22153e-10
0.00602189
-7.33291e-11
0.00602189
2.66476e-10
0.00602189
9.10052e-10
0.00602189
2.0297e-09
0.00602189
3.88604e-09
0.00602189
6.86927e-09
0.00602189
1.15569e-08
0.00602189
1.87936e-08
0.00602189
2.97955e-08
0.00602188
4.62839e-08
0.00602188
7.06481e-08
0.00602187
1.06128e-07
0.00602185
1.56997e-07
0.00602183
2.28706e-07
0.0060218
3.27916e-07
0.00602176
4.62353e-07
0.0060217
6.40374e-07
0.00602162
8.70286e-07
0.00602151
1.15917e-06
0.00602138
1.50829e-06
0.00602122
1.89487e-06
0.00602105
2.25046e-06
0.0060209
2.61028e-06
0.00602093
3.59854e-06
0.00602136
5.05578e-06
0.006021
-1.24195e-07
0.00601777
-1.30304e-05
0.00602844
1.18057e-05
1.29235e-05
0.00422528
-0.0052008
0.00388399
-0.00500997
0.00379207
-0.00497519
0.00382015
-0.00456259
0.00391871
-0.00383503
0.00404631
-0.0030796
0.00417283
-0.0024222
0.00428314
-0.0018743
0.00437242
-0.0014263
0.00444137
-0.00106779
0.00449292
-0.000787477
0.00453052
-0.000572969
0.0045574
-0.000411602
0.00457633
-0.000292217
0.00458948
-0.000205182
0.00459852
-0.000142597
0.00460467
-9.81553e-05
0.00460881
-6.69557e-05
0.00461158
-4.5291e-05
0.00461342
-3.03957e-05
0.00461464
-2.02485e-05
0.00461543
-1.33951e-05
0.00461595
-8.80317e-06
0.00461629
-5.74945e-06
0.0046165
-3.73283e-06
0.00461664
-2.40981e-06
0.00461673
-1.5472e-06
0.00461679
-9.88065e-07
0.00461682
-6.27598e-07
0.00461684
-3.96434e-07
0.00461686
-2.48929e-07
0.00461687
-1.5525e-07
0.00461687
-9.60202e-08
0.00461687
-5.87525e-08
0.00461688
-3.5402e-08
0.00461688
-2.08557e-08
0.00461688
-1.18343e-08
0.00461688
-6.27529e-09
0.00461688
-2.87673e-09
0.00461688
-8.3066e-10
0.00461688
3.92141e-10
0.00461688
1.10782e-09
0.00461688
1.49777e-09
0.00461688
1.69714e-09
0.00461688
1.78087e-09
0.00461688
1.79526e-09
0.00461688
1.7688e-09
0.00461688
1.719e-09
0.00461688
1.65701e-09
0.00461688
1.59024e-09
0.00461688
1.52437e-09
0.00461688
1.45454e-09
0.00461688
1.3662e-09
0.00461688
1.26285e-09
0.00461688
1.19774e-09
0.00461688
1.13918e-09
0.00461688
1.05501e-09
0.00461688
9.6778e-10
0.00461688
8.67312e-10
0.00461688
7.59907e-10
0.00461688
6.65347e-10
0.00461688
5.66771e-10
0.00461688
4.45151e-10
0.00461688
3.20953e-10
0.00461688
1.93671e-10
0.00461688
6.44109e-11
0.00461688
-6.276e-11
0.00461688
-1.8053e-10
0.00461688
-2.76148e-10
0.00461688
-3.29252e-10
0.00461688
-3.08109e-10
0.00461688
-1.62661e-10
0.00461688
1.84836e-10
0.00461688
8.54156e-10
0.00461688
2.02828e-09
0.00461688
3.98404e-09
0.00461688
7.13634e-09
0.00461688
1.20996e-08
0.00461688
1.97728e-08
0.00461688
3.14518e-08
0.00461687
4.89716e-08
0.00461687
7.48816e-08
0.00461686
1.12641e-07
0.00461685
1.66815e-07
0.00461684
2.43219e-07
0.00461682
3.4895e-07
0.00461679
4.92187e-07
0.00461675
6.81657e-07
0.00461669
9.25716e-07
0.00461662
1.23059e-06
0.00461654
1.59451e-06
0.00461644
1.98812e-06
0.00461636
2.33499e-06
0.00461631
2.65517e-06
0.00461644
3.46855e-06
0.00461701
4.48743e-06
0.00461709
-1.99525e-07
0.00461507
-1.10137e-05
0.00462291
3.96903e-06
4.2149e-06
0.00418554
-0.00438633
0.00369072
-0.00451516
0.00341114
-0.0046956
0.00327248
-0.00442393
0.00323681
-0.00379937
0.00325993
-0.00310272
0.00330677
-0.00246904
0.00335755
-0.00192507
0.00340286
-0.00147161
0.00343965
-0.00110459
0.00346798
-0.000815811
0.00348893
-0.000593915
0.00350399
-0.000426661
0.0035146
-0.000302822
0.00352194
-0.000212529
0.00352697
-0.000147621
0.00353036
-0.000101552
0.00353264
-6.92311e-05
0.00353415
-4.68028e-05
0.00353515
-3.13928e-05
0.0035358
-2.09018e-05
0.00353623
-1.38205e-05
0.0035365
-9.07855e-06
0.00353668
-5.92672e-06
0.00353679
-3.84636e-06
0.00353687
-2.48213e-06
0.00353691
-1.59303e-06
0.00353694
-1.01694e-06
0.00353696
-6.45678e-07
0.00353697
-4.07669e-07
0.00353698
-2.55841e-07
0.00353698
-1.59445e-07
0.00353699
-9.8517e-08
0.00353699
-6.01898e-08
0.00353699
-3.61842e-08
0.00353699
-2.12326e-08
0.00353699
-1.19648e-08
0.00353699
-6.25747e-09
0.00353699
-2.77212e-09
0.00353699
-6.74795e-10
0.00353699
5.7404e-10
0.00353699
1.30009e-09
0.00353699
1.69435e-09
0.00353699
1.89212e-09
0.00353699
1.97105e-09
0.00353699
1.97888e-09
0.00353699
1.94497e-09
0.00353699
1.88738e-09
0.00353699
1.81754e-09
0.00353699
1.74275e-09
0.00353699
1.66829e-09
0.00353699
1.58612e-09
0.00353699
1.48726e-09
0.00353699
1.38378e-09
0.00353699
1.31172e-09
0.00353699
1.2418e-09
0.00353699
1.1482e-09
0.00353699
1.0489e-09
0.00353699
9.39158e-10
0.00353699
8.24242e-10
0.00353699
7.1889e-10
0.00353699
6.07212e-10
0.00353699
4.74029e-10
0.00353699
3.36389e-10
0.00353699
1.94648e-10
0.00353699
5.02186e-11
0.00353699
-9.27727e-11
0.00353699
-2.26759e-10
0.00353699
-3.38694e-10
0.00353699
-4.07626e-10
0.00353699
-4.00823e-10
0.00353699
-2.66679e-10
0.00353699
7.4912e-11
0.00353699
7.47439e-10
0.00353699
1.93954e-09
0.00353699
3.93663e-09
0.00353699
7.1668e-09
0.00353699
1.22642e-08
0.00353699
2.01571e-08
0.00353699
3.2184e-08
0.00353699
5.02419e-08
0.00353699
7.69669e-08
0.00353698
1.15937e-07
0.00353698
1.71872e-07
0.00353697
2.5078e-07
0.00353696
3.59967e-07
0.00353694
5.07793e-07
0.00353692
7.03036e-07
0.00353689
9.53728e-07
0.00353686
1.26481e-06
0.00353682
1.63106e-06
0.0035368
2.01674e-06
0.00353679
2.33982e-06
0.00353684
2.60973e-06
0.00353706
3.24384e-06
0.00353773
3.81794e-06
0.00353808
-5.47142e-07
0.00353682
-9.75928e-06
0.00354205
-1.25472e-06
-1.11654e-06
0.00422371
-0.00361004
0.00365698
-0.00394843
0.00325217
-0.0042908
0.00298388
-0.00415564
0.0028326
-0.00364809
0.00275963
-0.00302974
0.00272998
-0.00243939
0.0027217
-0.0019168
0.00272258
-0.00147249
0.00272656
-0.00110856
0.0027309
-0.000820152
0.00273454
-0.000597561
0.00273729
-0.000429407
0.00273922
-0.000304752
0.00274052
-0.000213826
0.00274136
-0.000148462
0.00274189
-0.000102084
0.00274222
-6.95616e-05
0.00274242
-4.70046e-05
0.00274254
-3.1514e-05
0.00274262
-2.09735e-05
0.00274266
-1.38624e-05
0.00274268
-9.10264e-06
0.0027427
-5.9403e-06
0.0027427
-3.85385e-06
0.00274271
-2.48614e-06
0.00274271
-1.59507e-06
0.00274271
-1.01788e-06
0.00274271
-6.4603e-07
0.00274271
-4.07704e-07
0.00274271
-2.5571e-07
0.00274271
-1.59232e-07
0.00274271
-9.8268e-08
0.00274271
-5.99264e-08
0.00274271
-3.59197e-08
0.00274271
-2.09708e-08
0.00274271
-1.17097e-08
0.00274271
-6.01066e-09
0.00274271
-2.53468e-09
0.00274271
-4.45375e-10
0.00274271
7.93707e-10
0.00274271
1.50885e-09
0.00274271
1.89439e-09
0.00274271
2.08309e-09
0.00274271
2.153e-09
0.00274271
2.15206e-09
0.00274271
2.10964e-09
0.00274271
2.04389e-09
0.00274271
1.96616e-09
0.00274271
1.88349e-09
0.00274271
1.80044e-09
0.00274271
1.70759e-09
0.00274271
1.60025e-09
0.00274271
1.49532e-09
0.00274271
1.41613e-09
0.00274271
1.33592e-09
0.00274271
1.23369e-09
0.00274271
1.1238e-09
0.00274271
1.00553e-09
0.00274271
8.83371e-10
0.00274271
7.67911e-10
0.00274271
6.44287e-10
0.00274271
5.00317e-10
0.00274271
3.50187e-10
0.00274271
1.94852e-10
0.00274271
3.59566e-11
0.00274271
-1.22418e-10
0.00274271
-2.72659e-10
0.00274271
-4.01776e-10
0.00274271
-4.8878e-10
0.00274271
-5.00833e-10
0.00274271
-3.86176e-10
0.00274271
-6.4514e-11
0.00274271
5.87984e-10
0.00274271
1.76042e-09
0.00274271
3.73897e-09
0.00274271
6.95297e-09
0.00274271
1.20387e-08
0.00274271
1.99275e-08
0.00274271
3.19631e-08
0.00274271
5.00502e-08
0.00274271
7.68362e-08
0.00274271
1.15914e-07
0.00274271
1.72022e-07
0.00274271
2.51179e-07
0.00274271
3.60679e-07
0.00274271
5.08803e-07
0.00274271
7.04089e-07
0.00274271
9.53947e-07
0.00274271
1.2618e-06
0.00274273
1.619e-06
0.00274276
1.9844e-06
0.00274282
2.27299e-06
0.00274295
2.48611e-06
0.00274325
2.94248e-06
0.00274396
3.10318e-06
0.00274442
-1.00244e-06
0.00274356
-8.89608e-06
0.00274666
-4.35726e-06
-3.93895e-06
0.00430254
-0.00291259
0.00372127
-0.00336716
0.00324354
-0.00381307
0.00288175
-0.00379384
0.00263621
-0.00340256
0.00247886
-0.00287238
0.00237879
-0.00233932
0.00231437
-0.00185238
0.00227204
-0.00143016
0.0022436
-0.00108012
0.00222402
-0.000800571
0.0022103
-0.000583844
0.00220066
-0.000419764
0.00219385
-0.000297936
0.00218904
-0.00020902
0.00218566
-0.000145085
0.0021833
-9.97245e-05
0.00218167
-6.79314e-05
0.00218056
-4.58863e-05
0.00217979
-3.07532e-05
0.00217928
-2.04601e-05
0.00217894
-1.35186e-05
0.00217871
-8.87411e-06
0.00217856
-5.78942e-06
0.00217846
-3.75487e-06
0.00217839
-2.42158e-06
0.00217835
-1.55318e-06
0.00217833
-9.90824e-07
0.00217831
-6.28609e-07
0.0021783
-3.96513e-07
0.00217829
-2.48522e-07
0.00217829
-1.54604e-07
0.00217828
-9.527e-08
0.00217828
-5.79611e-08
0.00217828
-3.46083e-08
0.00217828
-2.00707e-08
0.00217828
-1.10698e-08
0.00217828
-5.53576e-09
0.00217828
-2.16545e-09
0.00217828
-1.43436e-10
0.00217828
1.05008e-09
0.00217828
1.73304e-09
0.00217828
2.09683e-09
0.00217828
2.26899e-09
0.00217828
2.3257e-09
0.00217828
2.31376e-09
0.00217828
2.2618e-09
0.00217828
2.18754e-09
0.00217828
2.10191e-09
0.00217828
2.01154e-09
0.00217828
1.92017e-09
0.00217828
1.81817e-09
0.00217828
1.70402e-09
0.00217828
1.59664e-09
0.00217828
1.51032e-09
0.00217828
1.42084e-09
0.00217828
1.31088e-09
0.00217828
1.19189e-09
0.00217828
1.06591e-09
0.00217828
9.36831e-10
0.00217828
8.11937e-10
0.00217828
6.77489e-10
0.00217828
5.23587e-10
0.00217828
3.61968e-10
0.00217828
1.93968e-10
0.00217828
2.13703e-11
0.00217828
-1.5189e-10
0.00217828
-3.18376e-10
0.00217828
-4.65488e-10
0.00217828
-5.72757e-10
0.00217828
-6.08134e-10
0.00217828
-5.21101e-10
0.00217828
-2.33352e-10
0.00217828
3.75915e-10
0.00217828
1.49108e-09
0.00217828
3.39122e-09
0.00217828
6.49501e-09
0.00217828
1.14231e-08
0.00217828
1.90839e-08
0.00217828
3.07886e-08
0.00217829
4.83955e-08
0.00217829
7.44882e-08
0.00217829
1.12572e-07
0.0021783
1.67265e-07
0.0021783
2.44423e-07
0.00217831
3.51118e-07
0.00217833
4.95305e-07
0.00217835
6.85032e-07
0.00217837
9.26885e-07
0.00217841
1.22272e-06
0.00217847
1.5609e-06
0.00217856
1.89648e-06
0.00217869
2.14423e-06
0.00217887
2.29899e-06
0.00217923
2.58907e-06
0.00217993
2.40107e-06
0.00218036
-1.43438e-06
0.00217964
-8.17097e-06
0.00218116
-5.88107e-06
-5.05984e-06
0.00439642
-0.00230901
0.00383646
-0.0028072
0.00332528
-0.00330188
0.00290121
-0.00336977
0.00258252
-0.00308387
0.0023539
-0.00264376
0.00219122
-0.00217665
0.00207518
-0.00173634
0.00199217
-0.00134715
0.00193269
-0.00102064
0.00189005
-0.000757928
0.00185953
-0.000553333
0.00183782
-0.000398049
0.00182246
-0.000282578
0.00181168
-0.000198239
0.00180418
-0.000137578
0.00179899
-9.45408e-05
0.00179544
-6.43829e-05
0.00179303
-4.34769e-05
0.00179141
-2.913e-05
0.00179033
-1.93748e-05
0.00178961
-1.2798e-05
0.00178913
-8.39888e-06
0.00178882
-5.47799e-06
0.00178862
-3.55197e-06
0.00178848
-2.29013e-06
0.0017884
-1.46845e-06
0.00178835
-9.3646e-07
0.00178831
-5.93869e-07
0.00178829
-3.74386e-07
0.00178827
-2.34461e-07
0.00178827
-1.45677e-07
0.00178826
-8.95964e-08
0.00178826
-5.43403e-08
0.00178825
-3.22793e-08
0.00178825
-1.85509e-08
0.00178825
-1.0057e-08
0.00178825
-4.84046e-09
0.00178825
-1.66957e-09
0.00178825
2.27534e-10
0.00178825
1.34068e-09
0.00178825
1.97074e-09
0.00178825
2.3002e-09
0.00178825
2.44857e-09
0.00178825
2.48805e-09
0.00178825
2.463e-09
0.00178825
2.40054e-09
0.00178825
2.31745e-09
0.00178825
2.22398e-09
0.00178825
2.12618e-09
0.00178825
2.02693e-09
0.00178825
1.91717e-09
0.00178825
1.79755e-09
0.00178825
1.68707e-09
0.00178825
1.59384e-09
0.00178825
1.49611e-09
0.00178825
1.37933e-09
0.00178825
1.25267e-09
0.00178825
1.11984e-09
0.00178825
9.84272e-10
0.00178825
8.50675e-10
0.00178825
7.06513e-10
0.00178825
5.43589e-10
0.00178825
3.71528e-10
0.00178825
1.91854e-10
0.00178825
6.39606e-12
0.00178825
-1.8117e-10
0.00178825
-3.63789e-10
0.00178825
-5.29586e-10
0.00178825
-6.59149e-10
0.00178825
-7.2209e-10
0.00178825
-6.70484e-10
0.00178825
-4.30135e-10
0.00178825
1.13449e-10
0.00178825
1.13488e-09
0.00178825
2.89849e-09
0.00178825
5.80072e-09
0.00178826
1.04293e-08
0.00178826
1.76446e-08
0.00178826