/*--------------------------------*- C++ -*----------------------------------*\
| =========                 |                                                 |
| \\      /  F ield         | foam-extend: Open Source CFD                    |
|  \\    /   O peration     | Version:     5.0                                |
|   \\  /    A nd           | Web:         http://www.foam-extend.org         |
|    \\/     M anipulation  |                                                 |
\*---------------------------------------------------------------------------*/
FoamFile
{
    version     2.0;
    format      ascii;
    class       volVectorField;
    location    "0.015";
    object      U;
}
// * * * * * * * * * * * * * * * * * * * * * * * * * * * * * * * * * * * * * //

dimensions      [0 1 -1 0 0 0 0];

internalField   nonuniform List<vector> 
4000
(
(0.452988 0.0259156 0)
(0.845337 0.0119094 0)
(0.77409 -0.000582683 0)
(0.800884 -0.00689379 0)
(0.857002 -0.00580783 0)
(0.895561 -0.0035559 0)
(0.91868 -0.00242925 0)
(0.935528 -0.00191795 0)
(0.949096 -0.00153918 0)
(0.959779 -0.00120425 0)
(0.967918 -0.00092035 0)
(0.974002 -0.000692224 0)
(0.978494 -0.000513014 0)
(0.981771 -0.000375511 0)
(0.984134 -0.000271117 0)
(0.985818 -0.000193513 0)
(0.987005 -0.000136421 0)
(0.987833 -9.52035e-05 0)
(0.988404 -6.57127e-05 0)
(0.988795 -4.49635e-05 0)
(0.98906 -3.04701e-05 0)
(0.989238 -2.04935e-05 0)
(0.989357 -1.36661e-05 0)
(0.989435 -9.05409e-06 0)
(0.989487 -5.95261e-06 0)
(0.989521 -3.8907e-06 0)
(0.989543 -2.52583e-06 0)
(0.989557 -1.63086e-06 0)
(0.989566 -1.04612e-06 0)
(0.989572 -6.67567e-07 0)
(0.989576 -4.22993e-07 0)
(0.989578 -2.66402e-07 0)
(0.98958 -1.66372e-07 0)
(0.989581 -1.02928e-07 0)
(0.989581 -6.2818e-08 0)
(0.989582 -3.75594e-08 0)
(0.989582 -2.1748e-08 0)
(0.989582 -1.19206e-08 0)
(0.989582 -5.85928e-09 0)
(0.989582 -2.04445e-09 0)
(0.989582 2.29174e-10 0)
(0.989582 1.53119e-09 0)
(0.989582 2.38729e-09 0)
(0.989582 2.85637e-09 0)
(0.989582 3.10968e-09 0)
(0.989582 3.23346e-09 0)
(0.989582 3.278e-09 0)
(0.989582 3.27335e-09 0)
(0.989582 3.23107e-09 0)
(0.989582 3.16651e-09 0)
(0.989582 3.28054e-09 0)
(0.989582 3.11971e-09 0)
(0.989582 2.75759e-09 0)
(0.989582 3.15938e-09 0)
(0.989582 3.12804e-09 0)
(0.989582 2.78563e-09 0)
(0.989582 2.72428e-09 0)
(0.989582 2.55407e-09 0)
(0.989582 2.52773e-09 0)
(0.989582 2.57243e-09 0)
(0.989582 2.51407e-09 0)
(0.989582 2.33226e-09 0)
(0.989582 2.26187e-09 0)
(0.989582 2.16775e-09 0)
(0.989582 2.08024e-09 0)
(0.989582 1.99927e-09 0)
(0.989582 1.93177e-09 0)
(0.989582 1.89411e-09 0)
(0.989582 1.90558e-09 0)
(0.989582 1.99958e-09 0)
(0.989582 2.22939e-09 0)
(0.989582 2.67587e-09 0)
(0.989582 3.46337e-09 0)
(0.989582 4.77861e-09 0)
(0.989582 6.90949e-09 0)
(0.989582 1.02585e-08 0)
(0.989582 1.5457e-08 0)
(0.989582 2.33682e-08 0)
(0.989582 3.52618e-08 0)
(0.989581 5.28202e-08 0)
(0.989581 7.8458e-08 0)
(0.98958 1.15119e-07 0)
(0.989579 1.66886e-07 0)
(0.989578 2.38236e-07 0)
(0.989576 3.34979e-07 0)
(0.989573 4.62363e-07 0)
(0.989569 6.26821e-07 0)
(0.989564 8.32684e-07 0)
(0.989556 1.08807e-06 0)
(0.989546 1.39964e-06 0)
(0.989533 1.72241e-06 0)
(0.989516 1.61642e-06 0)
(0.98951 -1.835e-07 0)
(0.989539 -1.68311e-06 0)
(0.989496 1.99144e-05 0)
(0.988919 8.52777e-05 0)
(0.988394 -7.79461e-06 0)
(0.992815 -0.00063371 0)
(0.988932 0.00069381 0)
(0.984635 0.00119073 0)
(0.739169 0.00932995 0)
(1.61078 0.00847717 0)
(1.6136 -0.0141668 0)
(1.68477 -0.0260787 0)
(1.80198 -0.0213939 0)
(1.89451 -0.0144615 0)
(1.95627 -0.0104225 0)
(2.00078 -0.00804908 0)
(2.03504 -0.00624814 0)
(2.06138 -0.00477312 0)
(2.08123 -0.00359226 0)
(2.09596 -0.00266786 0)
(2.10675 -0.00195684 0)
(2.11457 -0.00141788 0)
(2.12016 -0.00101504 0)
(2.12411 -0.000718381 0)
(2.12688 -0.000502918 0)
(2.1288 -0.000348486 0)
(2.13012 -0.000239161 0)
(2.13101 -0.000162669 0)
(2.13162 -0.000109712 0)
(2.13202 -7.34156e-05 0)
(2.13229 -4.87642e-05 0)
(2.13247 -3.21667e-05 0)
(2.13259 -2.10787e-05 0)
(2.13266 -1.37274e-05 0)
(2.13271 -8.88714e-06 0)
(2.13274 -5.72065e-06 0)
(2.13276 -3.66188e-06 0)
(2.13277 -2.33102e-06 0)
(2.13278 -1.47511e-06 0)
(2.13279 -9.27774e-07 0)
(2.13279 -5.79504e-07 0)
(2.13279 -3.58838e-07 0)
(2.13279 -2.19837e-07 0)
(2.1328 -1.32409e-07 0)
(2.1328 -7.7884e-08 0)
(2.1328 -4.40394e-08 0)
(2.1328 -2.32463e-08 0)
(2.1328 -1.02348e-08 0)
(2.1328 -2.51624e-09 0)
(2.1328 1.89543e-09 0)
(2.1328 4.72502e-09 0)
(2.1328 6.24412e-09 0)
(2.1328 7.02968e-09 0)
(2.1328 7.37674e-09 0)
(2.1328 7.45676e-09 0)
(2.1328 7.37428e-09 0)
(2.1328 7.17649e-09 0)
(2.1328 6.9191e-09 0)
(2.1328 6.87227e-09 0)
(2.1328 6.64458e-09 0)
(2.1328 6.1138e-09 0)
(2.1328 6.52149e-09 0)
(2.1328 6.00111e-09 0)
(2.1328 5.22893e-09 0)
(2.1328 5.04642e-09 0)
(2.1328 4.46298e-09 0)
(2.1328 4.29115e-09 0)
(2.1328 4.31868e-09 0)
(2.1328 3.96411e-09 0)
(2.1328 3.34161e-09 0)
(2.1328 3.02325e-09 0)
(2.1328 2.60662e-09 0)
(2.1328 2.20265e-09 0)
(2.1328 1.81529e-09 0)
(2.1328 1.46615e-09 0)
(2.1328 1.20951e-09 0)
(2.1328 1.1135e-09 0)
(2.1328 1.29507e-09 0)
(2.1328 1.94052e-09 0)
(2.1328 3.33712e-09 0)
(2.1328 5.9213e-09 0)
(2.1328 1.03657e-08 0)
(2.1328 1.76874e-08 0)
(2.1328 2.93721e-08 0)
(2.1328 4.76616e-08 0)
(2.1328 7.58114e-08 0)
(2.1328 1.18436e-07 0)
(2.1328 1.8205e-07 0)
(2.13279 2.75654e-07 0)
(2.13279 4.11283e-07 0)
(2.13279 6.04699e-07 0)
(2.13279 8.75714e-07 0)
(2.13278 1.24827e-06 0)
(2.13278 1.74964e-06 0)
(2.13277 2.4093e-06 0)
(2.13275 3.25742e-06 0)
(2.13273 4.3312e-06 0)
(2.13271 5.6924e-06 0)
(2.13268 7.36596e-06 0)
(2.13264 8.62099e-06 0)
(2.13261 6.44915e-06 0)
(2.13261 3.34529e-06 0)
(2.13241 5.0074e-05 0)
(2.13148 0.000205481 0)
(2.13142 -1.59005e-05 0)
(2.139 -0.00156848 0)
(2.12599 0.00191158 0)
(2.12874 0.00316279 0)
(0.716374 -0.117658 0)
(1.79177 -0.0463676 0)
(1.91051 -0.0505699 0)
(2.02574 -0.0610718 0)
(2.16891 -0.050751 0)
(2.2851 -0.0363553 0)
(2.36686 -0.0265247 0)
(2.42654 -0.0201461 0)
(2.47177 -0.0154103 0)
(2.50594 -0.0116683 0)
(2.53137 -0.00872286 0)
(2.55004 -0.00643785 0)
(2.5636 -0.0046941 0)
(2.57332 -0.00338233 0)
(2.58023 -0.00240915 0)
(2.58509 -0.00169718 0)
(2.58846 -0.00118317 0)
(2.59078 -0.000816706 0)
(2.59237 -0.00055853 0)
(2.59344 -0.000378657 0)
(2.59416 -0.000254621 0)
(2.59464 -0.000169906 0)
(2.59496 -0.000112561 0)
(2.59517 -7.40656e-05 0)
(2.59531 -4.84222e-05 0)
(2.5954 -3.14649e-05 0)
(2.59545 -2.03259e-05 0)
(2.59549 -1.30558e-05 0)
(2.59551 -8.33918e-06 0)
(2.59553 -5.29617e-06 0)
(2.59554 -3.34321e-06 0)
(2.59554 -2.09656e-06 0)
(2.59555 -1.30472e-06 0)
(2.59555 -8.03912e-07 0)
(2.59555 -4.88941e-07 0)
(2.59555 -2.91292e-07 0)
(2.59555 -1.68239e-07 0)
(2.59555 -9.20203e-08 0)
(2.59555 -4.52534e-08 0)
(2.59555 -1.62499e-08 0)
(2.59555 9.62995e-10 0)
(2.59555 1.08382e-08 0)
(2.59555 1.69657e-08 0)
(2.59555 2.02314e-08 0)
(2.59555 2.18649e-08 0)
(2.59555 2.25196e-08 0)
(2.59555 2.25877e-08 0)
(2.59555 2.2297e-08 0)
(2.59555 2.17744e-08 0)
(2.59555 2.11621e-08 0)
(2.59555 2.05956e-08 0)
(2.59555 2.03919e-08 0)
(2.59555 2.00504e-08 0)
(2.59555 1.92766e-08 0)
(2.59555 1.78878e-08 0)
(2.59555 1.70189e-08 0)
(2.59555 1.64012e-08 0)
(2.59555 1.52577e-08 0)
(2.59555 1.46866e-08 0)
(2.59555 1.43384e-08 0)
(2.59555 1.33639e-08 0)
(2.59555 1.21396e-08 0)
(2.59555 1.11929e-08 0)
(2.59555 1.01141e-08 0)
(2.59555 9.05645e-09 0)
(2.59555 8.01668e-09 0)
(2.59555 7.05025e-09 0)
(2.59555 6.26942e-09 0)
(2.59555 5.83821e-09 0)
(2.59555 6.01637e-09 0)
(2.59555 7.23502e-09 0)
(2.59555 1.01447e-08 0)
(2.59555 1.57564e-08 0)
(2.59555 2.56133e-08 0)
(2.59555 4.20661e-08 0)
(2.59555 6.85888e-08 0)
(2.59555 1.10392e-07 0)
(2.59555 1.751e-07 0)
(2.59555 2.73624e-07 0)
(2.59555 4.21437e-07 0)
(2.59555 6.40094e-07 0)
(2.59555 9.58787e-07 0)
(2.59555 1.41614e-06 0)
(2.59554 2.06162e-06 0)
(2.59554 2.95628e-06 0)
(2.59553 4.17205e-06 0)
(2.59552 5.7896e-06 0)
(2.5955 7.89487e-06 0)
(2.59548 1.05792e-05 0)
(2.59545 1.39343e-05 0)
(2.5954 1.78969e-05 0)
(2.59535 2.13831e-05 0)
(2.5953 2.16996e-05 0)
(2.59526 2.85381e-05 0)
(2.59504 0.0001127 0)
(2.59419 0.000297411 0)
(2.59452 -0.000168223 0)
(2.60217 -0.00209916 0)
(2.5824 0.00309471 0)
(2.59862 0.00458586 0)
(0.585118 -0.233167 0)
(1.67843 -0.124492 0)
(1.84556 -0.103825 0)
(1.97949 -0.101272 0)
(2.13023 -0.0825239 0)
(2.25241 -0.0611043 0)
(2.34043 -0.0453184 0)
(2.40554 -0.0342589 0)
(2.45476 -0.0259558 0)
(2.49165 -0.0194986 0)
(2.51887 -0.0144841 0)
(2.5387 -0.0106303 0)
(2.55299 -0.00771115 0)
(2.56318 -0.00552969 0)
(2.57038 -0.00392122 0)
(2.5754 -0.00275114 0)
(2.57887 -0.00191072 0)
(2.58125 -0.00131436 0)
(2.58287 -0.000896009 0)
(2.58396 -0.000605672 0)
(2.58469 -0.000406166 0)
(2.58517 -0.000270349 0)
(2.58549 -0.000178685 0)
(2.5857 -0.00011732 0)
(2.58584 -7.65454e-05 0)
(2.58593 -4.96462e-05 0)
(2.58598 -3.20138e-05 0)
(2.58602 -2.05296e-05 0)
(2.58604 -1.3093e-05 0)
(2.58606 -8.30379e-06 0)
(2.58607 -5.23541e-06 0)
(2.58607 -3.27982e-06 0)
(2.58608 -2.0395e-06 0)
(2.58608 -1.25618e-06 0)
(2.58608 -7.64167e-07 0)
(2.58608 -4.55955e-07 0)
(2.58608 -2.64332e-07 0)
(2.58608 -1.45816e-07 0)
(2.58608 -7.31343e-08 0)
(2.58608 -2.84856e-08 0)
(2.58608 -1.8808e-09 0)
(2.58608 1.35369e-08 0)
(2.58608 2.27349e-08 0)
(2.58608 2.76251e-08 0)
(2.58608 3.00043e-08 0)
(2.58608 3.0875e-08 0)
(2.58608 3.08462e-08 0)
(2.58608 3.02725e-08 0)
(2.58608 2.93666e-08 0)
(2.58608 2.83394e-08 0)
(2.58608 2.7193e-08 0)
(2.58608 2.70046e-08 0)
(2.58608 2.67895e-08 0)
(2.58608 2.40941e-08 0)
(2.58608 2.20143e-08 0)
(2.58608 2.1441e-08 0)
(2.58608 2.02482e-08 0)
(2.58608 1.88151e-08 0)
(2.58608 1.75776e-08 0)
(2.58608 1.6217e-08 0)
(2.58608 1.4662e-08 0)
(2.58608 1.30759e-08 0)
(2.58608 1.12357e-08 0)
(2.58608 9.37641e-09 0)
(2.58608 7.53542e-09 0)
(2.58608 5.70428e-09 0)
(2.58608 3.97113e-09 0)
(2.58608 2.50701e-09 0)
(2.58608 1.57181e-09 0)
(2.58608 1.57375e-09 0)
(2.58608 3.19074e-09 0)
(2.58608 7.44755e-09 0)
(2.58608 1.59441e-08 0)
(2.58608 3.11244e-08 0)
(2.58608 5.6719e-08 0)
(2.58608 9.82965e-08 0)
(2.58608 1.64181e-07 0)
(2.58608 2.66612e-07 0)
(2.58608 4.23262e-07 0)
(2.58608 6.59285e-07 0)
(2.58608 1.00999e-06 0)
(2.58608 1.52359e-06 0)
(2.58607 2.26455e-06 0)
(2.58607 3.31636e-06 0)
(2.58606 4.78377e-06 0)
(2.58606 6.79234e-06 0)
(2.58604 9.48615e-06 0)
(2.58603 1.30211e-05 0)
(2.586 1.75618e-05 0)
(2.58597 2.32717e-05 0)
(2.58592 3.01852e-05 0)
(2.58587 3.7488e-05 0)
(2.58581 4.33298e-05 0)
(2.58577 5.8183e-05 0)
(2.58558 0.000145806 0)
(2.58479 0.000302366 0)
(2.58522 -0.000214379 0)
(2.59269 -0.00191156 0)
(2.56893 0.00321368 0)
(2.59498 0.00437037 0)
(0.445189 -0.309187 0)
(1.46892 -0.194945 0)
(1.60952 -0.159479 0)
(1.72786 -0.142885 0)
(1.87157 -0.114566 0)
(1.98897 -0.0862029 0)
(2.07429 -0.0646668 0)
(2.1382 -0.0489008 0)
(2.18682 -0.0368977 0)
(2.22327 -0.0275923 0)
(2.25006 -0.0204086 0)
(2.26952 -0.0149189 0)
(2.28349 -0.0107818 0)
(2.29341 -0.00770458 0)
(2.30038 -0.0054457 0)
(2.30523 -0.00380919 0)
(2.30857 -0.00263822 0)
(2.31086 -0.00181016 0)
(2.3124 -0.0012311 0)
(2.31344 -0.000830382 0)
(2.31413 -0.000555748 0)
(2.31459 -0.000369231 0)
(2.31489 -0.000243624 0)
(2.31509 -0.000159704 0)
(2.31522 -0.000104045 0)
(2.3153 -6.73878e-05 0)
(2.31536 -4.3398e-05 0)
(2.31539 -2.77951e-05 0)
(2.31541 -1.77053e-05 0)
(2.31543 -1.12159e-05 0)
(2.31543 -7.06346e-06 0)
(2.31544 -4.4198e-06 0)
(2.31544 -2.74478e-06 0)
(2.31545 -1.68792e-06 0)
(2.31545 -1.02468e-06 0)
(2.31545 -6.09886e-07 0)
(2.31545 -3.52204e-07 0)
(2.31545 -1.92984e-07 0)
(2.31545 -9.53044e-08 0)
(2.31545 -3.60325e-08 0)
(2.31545 -4.00042e-10 0)
(2.31545 2.06323e-08 0)
(2.31545 3.25115e-08 0)
(2.31545 3.88701e-08 0)
(2.31545 4.18929e-08 0)
(2.31545 4.29048e-08 0)
(2.31545 4.27206e-08 0)
(2.31545 4.18209e-08 0)
(2.31545 4.05042e-08 0)
(2.31545 3.90343e-08 0)
(2.31545 3.7475e-08 0)
(2.31545 3.70612e-08 0)
(2.31545 3.62813e-08 0)
(2.31545 3.19441e-08 0)
(2.31545 2.9725e-08 0)
(2.31545 2.92992e-08 0)
(2.31545 2.74566e-08 0)
(2.31545 2.58129e-08 0)
(2.31545 2.36484e-08 0)
(2.31545 2.09569e-08 0)
(2.31545 1.89951e-08 0)
(2.31545 1.71588e-08 0)
(2.31545 1.42651e-08 0)
(2.31545 1.1566e-08 0)
(2.31545 8.87527e-09 0)
(2.31545 6.17904e-09 0)
(2.31545 3.59745e-09 0)
(2.31545 1.35451e-09 0)
(2.31545 -1.95468e-10 0)
(2.31545 -4.94961e-10 0)
(2.31545 1.36702e-09 0)
(2.31545 6.78268e-09 0)
(2.31545 1.79247e-08 0)
(2.31545 3.81204e-08 0)
(2.31545 7.24495e-08 0)
(2.31545 1.28548e-07 0)
(2.31545 2.17811e-07 0)
(2.31545 3.57033e-07 0)
(2.31545 5.70612e-07 0)
(2.31545 8.93407e-07 0)
(2.31545 1.3745e-06 0)
(2.31544 2.08139e-06 0)
(2.31544 3.1048e-06 0)
(2.31544 4.56325e-06 0)
(2.31543 6.60665e-06 0)
(2.31542 9.41688e-06 0)
(2.31541 1.32048e-05 0)
(2.3154 1.82019e-05 0)
(2.31537 2.46526e-05 0)
(2.31534 3.2807e-05 0)
(2.3153 4.28124e-05 0)
(2.31524 5.40458e-05 0)
(2.31518 6.47466e-05 0)
(2.31516 8.34042e-05 0)
(2.31501 0.000164538 0)
(2.3142 0.000300196 0)
(2.31461 -0.000169941 0)
(2.32243 -0.00156272 0)
(2.29649 0.00280537 0)
(2.32787 0.00359627 0)
(0.331568 -0.341701 0)
(1.26292 -0.244141 0)
(1.33613 -0.205727 0)
(1.4135 -0.17921 0)
(1.53685 -0.143237 0)
(1.64063 -0.109186 0)
(1.71652 -0.0827265 0)
(1.77424 -0.0627225 0)
(1.81873 -0.0472782 0)
(1.85229 -0.0352766 0)
(1.87696 -0.0260237 0)
(1.89487 -0.0189742 0)
(1.9077 -0.0136766 0)
(1.91679 -0.00974835 0)
(1.92316 -0.00687365 0)
(1.92758 -0.00479713 0)
(1.93062 -0.00331547 0)
(1.93269 -0.00227039 0)
(1.93409 -0.00154133 0)
(1.93503 -0.00103791 0)
(1.93565 -0.000693579 0)
(1.93607 -0.000460153 0)
(1.93634 -0.000303219 0)
(1.93652 -0.000198529 0)
(1.93663 -0.000129194 0)
(1.9367 -8.35872e-05 0)
(1.93675 -5.3778e-05 0)
(1.93678 -3.44108e-05 0)
(1.9368 -2.18992e-05 0)
(1.93681 -1.38606e-05 0)
(1.93682 -8.72193e-06 0)
(1.93683 -5.45276e-06 0)
(1.93683 -3.38293e-06 0)
(1.93683 -2.07788e-06 0)
(1.93683 -1.25928e-06 0)
(1.93683 -7.48271e-07 0)
(1.93683 -4.30888e-07 0)
(1.93683 -2.34911e-07 0)
(1.93683 -1.14677e-07 0)
(1.93683 -4.22972e-08 0)
(1.93683 1.44551e-09 0)
(1.93683 2.75465e-08 0)
(1.93683 4.17668e-08 0)
(1.93683 4.93927e-08 0)
(1.93683 5.29423e-08 0)
(1.93683 5.40298e-08 0)
(1.93683 5.36553e-08 0)
(1.93683 5.24167e-08 0)
(1.93683 5.06932e-08 0)
(1.93683 4.87907e-08 0)
(1.93683 4.68755e-08 0)
(1.93683 4.59699e-08 0)
(1.93683 4.42546e-08 0)
(1.93683 3.90606e-08 0)
(1.93683 3.68402e-08 0)
(1.93683 3.61303e-08 0)
(1.93683 3.37274e-08 0)
(1.93683 3.16682e-08 0)
(1.93683 2.86143e-08 0)
(1.93683 2.49119e-08 0)
(1.93683 2.24302e-08 0)
(1.93683 2.0121e-08 0)
(1.93683 1.63196e-08 0)
(1.93683 1.27825e-08 0)
(1.93683 9.23367e-09 0)
(1.93683 5.66295e-09 0)
(1.93683 2.2202e-09 0)
(1.93683 -8.31779e-10 0)
(1.93683 -3.04691e-09 0)
(1.93683 -3.72447e-09 0)
(1.93683 -1.75137e-09 0)
(1.93683 4.6033e-09 0)
(1.93683 1.8035e-08 0)
(1.93683 4.26804e-08 0)
(1.93683 8.48549e-08 0)
(1.93683 1.5409e-07 0)
(1.93683 2.64609e-07 0)
(1.93683 4.37409e-07 0)
(1.93683 7.0311e-07 0)
(1.93683 1.10558e-06 0)
(1.93683 1.70673e-06 0)
(1.93683 2.59207e-06 0)
(1.93683 3.87701e-06 0)
(1.93683 5.71302e-06 0)
(1.93682 8.29268e-06 0)
(1.93681 1.1851e-05 0)
(1.9368 1.66619e-05 0)
(1.93679 2.30267e-05 0)
(1.93677 3.12626e-05 0)
(1.93674 4.16908e-05 0)
(1.9367 5.4527e-05 0)
(1.93665 6.91892e-05 0)
(1.9366 8.3597e-05 0)
(1.9366 0.000103616 0)
(1.93648 0.000174982 0)
(1.93561 0.00029232 0)
(1.93603 -9.96493e-05 0)
(1.94447 -0.00119933 0)
(1.9173 0.0021337 0)
(1.95083 0.00259544 0)
(0.253365 -0.340462 0)
(1.10389 -0.2692 0)
(1.09786 -0.237013 0)
(1.12191 -0.206528 0)
(1.21595 -0.166252 0)
(1.29991 -0.128418 0)
(1.36162 -0.0982664 0)
(1.40958 -0.0748275 0)
(1.44734 -0.0564648 0)
(1.47618 -0.0421112 0)
(1.49743 -0.0310249 0)
(1.51289 -0.0225869 0)
(1.52396 -0.0162525 0)
(1.5318 -0.0115636 0)
(1.53728 -0.00813929 0)
(1.54108 -0.00567085 0)
(1.54369 -0.0039131 0)
(1.54546 -0.00267565 0)
(1.54666 -0.00181395 0)
(1.54746 -0.00121993 0)
(1.54799 -0.000814254 0)
(1.54834 -0.000539627 0)
(1.54857 -0.000355232 0)
(1.54872 -0.000232368 0)
(1.54882 -0.000151083 0)
(1.54888 -9.76694e-05 0)
(1.54892 -6.27908e-05 0)
(1.54895 -4.01488e-05 0)
(1.54896 -2.55328e-05 0)
(1.54897 -1.61494e-05 0)
(1.54898 -1.01556e-05 0)
(1.54898 -6.34425e-06 0)
(1.54898 -3.93243e-06 0)
(1.54899 -2.41297e-06 0)
(1.54899 -1.4601e-06 0)
(1.54899 -8.66065e-07 0)
(1.54899 -4.97182e-07 0)
(1.54899 -2.69541e-07 0)
(1.54899 -1.29997e-07 0)
(1.54899 -4.60941e-08 0)
(1.54899 4.52566e-09 0)
(1.54899 3.4657e-08 0)
(1.54899 5.0988e-08 0)
(1.54899 5.96586e-08 0)
(1.54899 6.36028e-08 0)
(1.54899 6.46962e-08 0)
(1.54899 6.41002e-08 0)
(1.54899 6.25162e-08 0)
(1.54899 6.03945e-08 0)
(1.54899 5.80729e-08 0)
(1.54899 5.57841e-08 0)
(1.54899 5.41614e-08 0)
(1.54899 5.1563e-08 0)
(1.54899 4.61794e-08 0)
(1.54899 4.37272e-08 0)
(1.54899 4.24394e-08 0)
(1.54899 3.95152e-08 0)
(1.54899 3.68386e-08 0)
(1.54899 3.3119e-08 0)
(1.54899 2.87975e-08 0)
(1.54899 2.56428e-08 0)
(1.54899 2.25987e-08 0)
(1.54899 1.80776e-08 0)
(1.54899 1.37317e-08 0)
(1.54899 9.33933e-09 0)
(1.54899 4.90798e-09 0)
(1.54899 6.11561e-10 0)
(1.54899 -3.25488e-09 0)
(1.54899 -6.16551e-09 0)
(1.54899 -7.29381e-09 0)
(1.54899 -5.35331e-09 0)
(1.54899 1.68237e-09 0)
(1.54899 1.69631e-08 0)
(1.54899 4.53305e-08 0)
(1.54899 9.41783e-08 0)
(1.54899 1.74682e-07 0)
(1.54899 3.03539e-07 0)
(1.54899 5.05433e-07 0)
(1.54899 8.1642e-07 0)
(1.54899 1.28829e-06 0)
(1.54899 1.99422e-06 0)
(1.54899 3.0356e-06 0)
(1.54898 4.54959e-06 0)
(1.54898 6.71675e-06 0)
(1.54898 9.76722e-06 0)
(1.54897 1.39826e-05 0)
(1.54896 1.96909e-05 0)
(1.54895 2.72524e-05 0)
(1.54893 3.70401e-05 0)
(1.54891 4.94157e-05 0)
(1.54887 6.4588e-05 0)
(1.54883 8.18429e-05 0)
(1.5488 9.85808e-05 0)
(1.54882 0.000118497 0)
(1.54873 0.000180496 0)
(1.5478 0.000281105 0)
(1.54827 -4.09083e-05 0)
(1.55738 -0.000912723 0)
(1.52943 0.00143292 0)
(1.5633 0.00166232 0)
(0.207218 -0.316752 0)
(1.0014 -0.273099 0)
(0.92283 -0.252356 0)
(0.892218 -0.223227 0)
(0.953033 -0.182222 0)
(1.01383 -0.142831 0)
(1.05847 -0.110448 0)
(1.09433 -0.0845796 0)
(1.12357 -0.063989 0)
(1.14632 -0.0477616 0)
(1.16324 -0.0351796 0)
(1.17559 -0.0255942 0)
(1.18444 -0.018397 0)
(1.1907 -0.0130737 0)
(1.19508 -0.00919056 0)
(1.19811 -0.00639527 0)
(1.20018 -0.00440766 0)
(1.20159 -0.00301035 0)
(1.20254 -0.00203868 0)
(1.20317 -0.0013697 0)
(1.20359 -0.000913377 0)
(1.20387 -0.000604802 0)
(1.20405 -0.000397822 0)
(1.20417 -0.000260037 0)
(1.20424 -0.000168958 0)
(1.20429 -0.000109154 0)
(1.20432 -7.01317e-05 0)
(1.20434 -4.48169e-05 0)
(1.20436 -2.84857e-05 0)
(1.20437 -1.80067e-05 0)
(1.20437 -1.13167e-05 0)
(1.20437 -7.06476e-06 0)
(1.20438 -4.37521e-06 0)
(1.20438 -2.68199e-06 0)
(1.20438 -1.62046e-06 0)
(1.20438 -9.59014e-07 0)
(1.20438 -5.48458e-07 0)
(1.20438 -2.95249e-07 0)
(1.20438 -1.40202e-07 0)
(1.20438 -4.68996e-08 0)
(1.20438 9.17259e-09 0)
(1.20438 4.23229e-08 0)
(1.20438 6.03619e-08 0)
(1.20438 6.98041e-08 0)
(1.20438 7.3987e-08 0)
(1.20438 7.5005e-08 0)
(1.20438 7.41518e-08 0)
(1.20438 7.22148e-08 0)
(1.20438 6.97006e-08 0)
(1.20438 6.6969e-08 0)
(1.20438 6.42948e-08 0)
(1.20438 6.18824e-08 0)
(1.20438 5.84708e-08 0)
(1.20438 5.31815e-08 0)
(1.20438 5.04162e-08 0)
(1.20438 4.84397e-08 0)
(1.20438 4.49967e-08 0)
(1.20438 4.16453e-08 0)
(1.20438 3.73777e-08 0)
(1.20438 3.25988e-08 0)
(1.20438 2.87582e-08 0)
(1.20438 2.49196e-08 0)
(1.20438 1.97613e-08 0)
(1.20438 1.46395e-08 0)
(1.20438 9.43083e-09 0)
(1.20438 4.16321e-09 0)
(1.20438 -9.72985e-10 0)
(1.20438 -5.64986e-09 0)
(1.20438 -9.2824e-09 0)
(1.20438 -1.0946e-08 0)
(1.20438 -9.20611e-09 0)
(1.20438 -1.79667e-09 0)
(1.20438 1.48028e-08 0)
(1.20438 4.60095e-08 0)
(1.20438 1.00099e-07 0)
(1.20438 1.89587e-07 0)
(1.20438 3.332e-07 0)
(1.20438 5.58646e-07 0)
(1.20438 9.06438e-07 0)
(1.20438 1.43487e-06 0)
(1.20438 2.22641e-06 0)
(1.20438 3.3955e-06 0)
(1.20437 5.09721e-06 0)
(1.20437 7.53603e-06 0)
(1.20437 1.09728e-05 0)
(1.20436 1.57266e-05 0)
(1.20436 2.21684e-05 0)
(1.20435 3.07019e-05 0)
(1.20433 4.1735e-05 0)
(1.20431 5.56341e-05 0)
(1.20429 7.25289e-05 0)
(1.20425 9.1451e-05 0)
(1.20424 0.000109262 0)
(1.20429 0.000128153 0)
(1.20422 0.000181436 0)
(1.20323 0.000263913 0)
(1.20378 -8.45321e-06 0)
(1.21348 -0.000716239 0)
(1.18494 0.000828459 0)
(1.21834 0.000920646 0)
(0.18526 -0.280682 0)
(0.948371 -0.26126 0)
(0.812688 -0.253473 0)
(0.733292 -0.229402 0)
(0.761217 -0.19077 0)
(0.798054 -0.151918 0)
(0.824371 -0.118789 0)
(0.846846 -0.0915758 0)
(0.866465 -0.0695333 0)
(0.882246 -0.0519915 0)
(0.894181 -0.0383191 0)
(0.902936 -0.0278759 0)
(0.909234 -0.0200264 0)
(0.913694 -0.0142208 0)
(0.91681 -0.00998815 0)
(0.91896 -0.00694389 0)
(0.920429 -0.0047814 0)
(0.921424 -0.00326271 0)
(0.922091 -0.00220773 0)
(0.922535 -0.00148211 0)
(0.922829 -0.000987613 0)
(0.923022 -0.000653515 0)
(0.923148 -0.000429594 0)
(0.92323 -0.000280639 0)
(0.923283 -0.000182244 0)
(0.923317 -0.000117677 0)
(0.923339 -7.55693e-05 0)
(0.923353 -4.8269e-05 0)
(0.923361 -3.06657e-05 0)
(0.923367 -1.93749e-05 0)
(0.92337 -1.21694e-05 0)
(0.923373 -7.59221e-06 0)
(0.923374 -4.69786e-06 0)
(0.923375 -2.87649e-06 0)
(0.923375 -1.73506e-06 0)
(0.923375 -1.02396e-06 0)
(0.923376 -5.82827e-07 0)
(0.923376 -3.10919e-07 0)
(0.923376 -1.44598e-07 0)
(0.923376 -4.44647e-08 0)
(0.923376 1.54882e-08 0)
(0.923376 5.06951e-08 0)
(0.923376 6.98873e-08 0)
(0.923376 7.97836e-08 0)
(0.923376 8.40263e-08 0)
(0.923376 8.48754e-08 0)
(0.923376 8.37229e-08 0)
(0.923376 8.14213e-08 0)
(0.923376 7.85167e-08 0)
(0.923376 7.53795e-08 0)
(0.923376 7.22964e-08 0)
(0.923376 6.91425e-08 0)
(0.923376 6.50262e-08 0)
(0.923376 5.98323e-08 0)
(0.923376 5.67437e-08 0)
(0.923376 5.41174e-08 0)
(0.923376 5.01582e-08 0)
(0.923376 4.61215e-08 0)
(0.923376 4.13401e-08 0)
(0.923376 3.61582e-08 0)
(0.923376 3.17089e-08 0)
(0.923376 2.71255e-08 0)
(0.923376 2.13439e-08 0)
(0.923376 1.54838e-08 0)
(0.923376 9.493e-09 0)
(0.923376 3.41839e-09 0)
(0.923376 -2.53936e-09 0)
(0.923376 -8.02446e-09 0)
(0.923376 -1.24117e-08 0)
(0.923376 -1.4706e-08 0)
(0.923376 -1.33592e-08 0)
(0.923376 -5.92754e-09 0)
(0.923376 1.13847e-08 0)
(0.923376 4.44237e-08 0)
(0.923376 1.02121e-07 0)
(0.923376 1.97987e-07 0)
(0.923376 3.52265e-07 0)
(0.923376 5.94921e-07 0)
(0.923376 9.69799e-07 0)
(0.923376 1.54006e-06 0)
(0.923375 2.39515e-06 0)
(0.923375 3.65926e-06 0)
(0.923374 5.50092e-06 0)
(0.923372 8.14244e-06 0)
(0.92337 1.18674e-05 0)
(0.923366 1.7022e-05 0)
(0.923361 2.40069e-05 0)
(0.923354 3.32526e-05 0)
(0.923345 4.518e-05 0)
(0.923332 6.01267e-05 0)
(0.923314 7.8089e-05 0)
(0.923291 9.77818e-05 0)
(0.923289 0.000115587 0)
(0.923372 0.000132739 0)
(0.92332 0.000177394 0)
(0.922289 0.000239325 0)
(0.922934 -1.99555e-06 0)
(0.933059 -0.000592043 0)
(0.904051 0.000364501 0)
(0.936734 0.000391586 0)
(0.17941 -0.239897 0)
(0.931848 -0.239344 0)
(0.75649 -0.243513 0)
(0.637777 -0.226306 0)
(0.636166 -0.192205 0)
(0.650044 -0.155636 0)
(0.658099 -0.123118 0)
(0.666782 -0.0956167 0)
(0.676271 -0.0729167 0)
(0.684597 -0.0546525 0)
(0.691142 -0.0403307 0)
(0.696009 -0.0293502 0)
(0.699536 -0.0210829 0)
(0.702036 -0.0149646 0)
(0.70378 -0.0105044 0)
(0.70498 -0.00729795 0)
(0.705794 -0.00502173 0)
(0.706342 -0.00342433 0)
(0.706707 -0.00231556 0)
(0.706948 -0.00155353 0)
(0.707107 -0.0010346 0)
(0.707211 -0.000684232 0)
(0.707278 -0.000449557 0)
(0.707322 -0.000293538 0)
(0.70735 -0.000190536 0)
(0.707367 -0.000122978 0)
(0.707379 -7.89404e-05 0)
(0.707386 -5.04018e-05 0)
(0.70739 -3.20073e-05 0)
(0.707393 -2.02132e-05 0)
(0.707395 -1.26888e-05 0)
(0.707396 -7.91087e-06 0)
(0.707397 -4.89052e-06 0)
(0.707397 -2.99037e-06 0)
(0.707397 -1.80004e-06 0)
(0.707398 -1.0586e-06 0)
(0.707398 -5.98894e-07 0)
(0.707398 -3.15707e-07 0)
(0.707398 -1.42673e-07 0)
(0.707398 -3.85127e-08 0)
(0.707398 2.36251e-08 0)
(0.707398 5.98746e-08 0)
(0.707398 7.96051e-08 0)
(0.707398 8.96052e-08 0)
(0.707398 9.37112e-08 0)
(0.707398 9.42874e-08 0)
(0.707398 9.27876e-08 0)
(0.707398 9.01056e-08 0)
(0.707398 8.68097e-08 0)
(0.707398 8.32701e-08 0)
(0.707398 7.97601e-08 0)
(0.707398 7.59449e-08 0)
(0.707398 7.12464e-08 0)
(0.707398 6.60841e-08 0)
(0.707398 6.26553e-08 0)
(0.707398 5.94336e-08 0)
(0.707398 5.49831e-08 0)
(0.707398 5.03073e-08 0)
(0.707398 4.50444e-08 0)
(0.707398 3.94818e-08 0)
(0.707398 3.44748e-08 0)
(0.707398 2.92063e-08 0)
(0.707398 2.28285e-08 0)
(0.707398 1.62729e-08 0)
(0.707398 9.53829e-09 0)
(0.707398 2.68833e-09 0)
(0.707398 -4.07101e-09 0)
(0.707398 -1.03657e-08 0)
(0.707398 -1.55474e-08 0)
(0.707398 -1.85778e-08 0)
(0.707398 -1.78365e-08 0)
(0.707398 -1.0768e-08 0)
(0.707398 6.59534e-09 0)
(0.707398 4.03687e-08 0)
(0.707398 9.98942e-08 0)
(0.707398 1.99307e-07 0)
(0.707398 3.59801e-07 0)
(0.707398 6.1277e-07 0)
(0.707398 1.00416e-06 0)
(0.707398 1.60021e-06 0)
(0.707398 2.49478e-06 0)
(0.707397 3.81829e-06 0)
(0.707397 5.74776e-06 0)
(0.707396 8.51673e-06 0)
(0.707395 1.24227e-05 0)
(0.707393 1.78283e-05 0)
(0.707391 2.51498e-05 0)
(0.707387 3.48282e-05 0)
(0.707382 4.72768e-05 0)
(0.707376 6.27785e-05 0)
(0.707366 8.11633e-05 0)
(0.707354 0.000100813 0)
(0.707367 0.000117755 0)
(0.707474 0.000132576 0)
(0.707437 0.000168384 0)
(0.706373 0.000208332 0)
(0.707105 -1.42116e-05 0)
(0.717518 -0.000516117 0)
(0.688105 4.17408e-05 0)
(0.720123 5.11564e-05 0)
(0.183032 -0.199479 0)
(0.938839 -0.212038 0)
(0.739556 -0.225788 0)
(0.591733 -0.215747 0)
(0.565517 -0.187336 0)
(0.558693 -0.154286 0)
(0.549531 -0.123504 0)
(0.544712 -0.0966644 0)
(0.543983 -0.0740695 0)
(0.544756 -0.055675 0)
(0.545747 -0.041152 0)
(0.546579 -0.029969 0)
(0.547221 -0.0215312 0)
(0.54768 -0.0152804 0)
(0.547993 -0.0107222 0)
(0.548201 -0.00744568 0)
(0.548333 -0.00512068 0)
(0.548416 -0.00348996 0)
(0.548467 -0.00235871 0)
(0.548498 -0.00158169 0)
(0.548517 -0.00105285 0)
(0.548528 -0.000695994 0)
(0.548534 -0.000457094 0)
(0.548538 -0.000298341 0)
(0.54854 -0.000193582 0)
(0.548541 -0.000124898 0)
(0.548542 -8.01445e-05 0)
(0.548542 -5.11519e-05 0)
(0.548542 -3.24709e-05 0)
(0.548542 -2.04967e-05 0)
(0.548542 -1.28594e-05 0)
(0.548542 -8.01109e-06 0)
(0.548542 -4.94712e-06 0)
(0.548542 -3.01996e-06 0)
(0.548542 -1.81314e-06 0)
(0.548542 -1.06157e-06 0)
(0.548542 -5.95835e-07 0)
(0.548542 -3.09128e-07 0)
(0.548542 -1.34145e-07 0)
(0.548542 -2.88956e-08 0)
(0.548542 3.36539e-08 0)
(0.548542 6.98922e-08 0)
(0.548542 8.95141e-08 0)
(0.548542 9.92486e-08 0)
(0.548542 1.0301e-07 0)
(0.548542 1.03203e-07 0)
(0.548542 1.01304e-07 0)
(0.548542 9.82237e-08 0)
(0.548542 9.45341e-08 0)
(0.548542 9.05967e-08 0)
(0.548542 8.66545e-08 0)
(0.548542 8.22636e-08 0)
(0.548542 7.70939e-08 0)
(0.548542 7.18908e-08 0)
(0.548542 6.81086e-08 0)
(0.548542 6.43458e-08 0)
(0.548542 5.94417e-08 0)
(0.548542 5.41975e-08 0)
(0.548542 4.84888e-08 0)
(0.548542 4.25581e-08 0)
(0.548542 3.70295e-08 0)
(0.548542 3.11351e-08 0)
(0.548542 2.41975e-08 0)
(0.548542 1.69927e-08 0)
(0.548542 9.55608e-09 0)
(0.548542 1.96462e-09 0)
(0.548542 -5.57532e-09 0)
(0.548542 -1.26822e-08 0)
(0.548542 -1.87015e-08 0)
(0.548542 -2.25794e-08 0)
(0.548542 -2.26675e-08 0)
(0.548542 -1.63679e-08 0)
(0.548542 3.5142e-10 0)
(0.548542 3.37075e-08 0)
(0.548542 9.31962e-08 0)
(0.548542 1.93188e-07 0)
(0.548542 3.55239e-07 0)
(0.548542 6.11292e-07 0)
(0.548542 1.00811e-06 0)
(0.548543 1.61313e-06 0)
(0.548543 2.52197e-06 0)
(0.548543 3.86751e-06 0)
(0.548543 5.83013e-06 0)
(0.548543 8.64771e-06 0)
(0.548543 1.26229e-05 0)
(0.548543 1.81231e-05 0)
(0.548542 2.5567e-05 0)
(0.548542 3.53907e-05 0)
(0.548542 4.79829e-05 0)
(0.548542 6.35547e-05 0)
(0.54854 8.17606e-05 0)
(0.548539 0.00010068 0)
(0.548567 0.000116113 0)
(0.548694 0.000128178 0)
(0.548667 0.000155027 0)
(0.547576 0.000173417 0)
(0.548379 -3.61014e-05 0)
(0.558959 -0.000467109 0)
(0.529204 -0.000160758 0)
(0.560716 -0.000142815 0)
(0.191356 -0.162305 0)
(0.958824 -0.182822 0)
(0.747979 -0.20322 0)
(0.580417 -0.199635 0)
(0.534955 -0.177193 0)
(0.510388 -0.148401 0)
(0.485674 -0.12019 0)
(0.468158 -0.0948105 0)
(0.457579 -0.0730148 0)
(0.450922 -0.0550544 0)
(0.446398 -0.0407667 0)
(0.443185 -0.0297151 0)
(0.440927 -0.0213576 0)
(0.439329 -0.0151576 0)
(0.438201 -0.010634 0)
(0.437409 -0.00738201 0)
(0.436852 -0.00507479 0)
(0.436466 -0.00345733 0)
(0.436201 -0.0023357 0)
(0.43602 -0.00156562 0)
(0.435897 -0.00104176 0)
(0.435815 -0.000688411 0)
(0.43576 -0.000451958 0)
(0.435724 -0.000294892 0)
(0.4357 -0.000191283 0)
(0.435684 -0.000123377 0)
(0.435674 -7.91432e-05 0)
(0.435667 -5.04957e-05 0)
(0.435663 -3.2042e-05 0)
(0.43566 -2.02164e-05 0)
(0.435659 -1.26755e-05 0)
(0.435658 -7.88946e-06 0)
(0.435657 -4.86557e-06 0)
(0.435656 -2.96401e-06 0)
(0.435656 -1.7736e-06 0)
(0.435656 -1.03243e-06 0)
(0.435656 -5.73407e-07 0)
(0.435656 -2.91053e-07 0)
(0.435656 -1.18959e-07 0)
(0.435656 -1.56017e-08 0)
(0.435656 4.55596e-08 0)
(0.435656 8.07176e-08 0)
(0.435656 9.95752e-08 0)
(0.435655 1.08668e-07 0)
(0.435655 1.11873e-07 0)
(0.435655 1.11572e-07 0)
(0.435655 1.09221e-07 0)
(0.435655 1.05723e-07 0)
(0.435655 1.01639e-07 0)
(0.435655 9.73108e-08 0)
(0.435655 9.29437e-08 0)
(0.435655 8.80583e-08 0)
(0.435655 8.25099e-08 0)
(0.435655 7.7206e-08 0)
(0.435655 7.30656e-08 0)
(0.435655 6.8814e-08 0)
(0.435655 6.35e-08 0)
(0.435655 5.77637e-08 0)
(0.435655 5.16482e-08 0)
(0.435655 4.53628e-08 0)
(0.435655 3.93455e-08 0)
(0.435655 3.28821e-08 0)
(0.435655 2.54259e-08 0)
(0.435655 1.76211e-08 0)
(0.435655 9.52721e-09 0)
(0.435656 1.23082e-09 0)
(0.435656 -7.06658e-09 0)
(0.435656 -1.49867e-08 0)
(0.435656 -2.18863e-08 0)
(0.435656 -2.67237e-08 0)
(0.435656 -2.78678e-08 0)
(0.435656 -2.27478e-08 0)
(0.435656 -7.37725e-09 0)
(0.435656 2.43934e-08 0)
(0.435656 8.19528e-08 0)
(0.435656 1.79512e-07 0)
(0.435656 3.3839e-07 0)
(0.435656 5.9019e-07 0)
(0.435656 9.81173e-07 0)
(0.435657 1.5781e-06 0)
(0.435657 2.47559e-06 0)
(0.435657 3.80522e-06 0)
(0.435658 5.74552e-06 0)
(0.435659 8.53181e-06 0)
(0.43566 1.24629e-05 0)
(0.435661 1.79001e-05 0)
(0.435664 2.5252e-05 0)
(0.435667 3.49358e-05 0)
(0.435671 4.73032e-05 0)
(0.435677 6.24864e-05 0)
(0.435684 7.99763e-05 0)
(0.435692 9.76155e-05 0)
(0.435734 0.000111116 0)
(0.435878 0.000120228 0)
(0.435856 0.000138423 0)
(0.434742 0.000137599 0)
(0.435595 -5.98336e-05 0)
(0.446254 -0.000429583 0)