/*--------------------------------*- C++ -*----------------------------------*\
| =========                 |                                                 |
| \\      /  F ield         | foam-extend: Open Source CFD                    |
|  \\    /   O peration     | Version:     5.0                                |
|   \\  /    A nd           | Web:         http://www.foam-extend.org         |
|    \\/     M anipulation  |                                                 |
\*---------------------------------------------------------------------------*/
FoamFile
{
    version     2.0;
    format      ascii;
    class       volVectorField;
    location    "0.03";
    object      bodyForce;
}
// * * * * * * * * * * * * * * * * * * * * * * * * * * * * * * * * * * * * * //

dimensions      [0 1 -2 0 0 0 0];

internalField   nonuniform List<vector> 
4000
(
(-104.747 0 0)
(-84.6968 0 0)
(-36.9367 0 0)
(8.3082 -0 0)
(62.1363 -0 0)
(101.772 -0 0)
(133.879 -0 0)
(164.62 -0 0)
(192.863 -0 0)
(217.402 -0 0)
(238.774 -0 0)
(257.343 -0 0)
(273.329 -0 0)
(286.946 -0 0)
(298.393 -0 0)
(307.816 -0 0)
(315.527 -0 0)
(321.751 -0 0)
(326.705 -0 0)
(330.581 -0 0)
(333.584 -0 0)
(335.904 -0 0)
(337.671 -0 0)
(339.003 -0 0)
(339.998 -0 0)
(340.734 -0 0)
(341.275 -0 0)
(341.67 -0 0)
(341.956 -0 0)
(342.161 -0 0)
(342.308 -0 0)
(342.411 -0 0)
(342.484 -0 0)
(342.536 -0 0)
(342.571 -0 0)
(342.596 -0 0)
(342.613 -0 0)
(342.625 -0 0)
(342.633 -0 0)
(342.638 -0 0)
(342.642 -0 0)
(342.645 -0 0)
(342.646 -0 0)
(342.647 -0 0)
(342.648 -0 0)
(342.649 -0 0)
(342.649 -0 0)
(342.649 -0 0)
(342.649 -0 0)
(342.65 -0 0)
(342.65 -0 0)
(342.65 -0 0)
(342.65 -0 0)
(342.65 -0 0)
(342.65 -0 0)
(342.65 -0 0)
(342.65 -0 0)
(342.65 -0 0)
(342.65 -0 0)
(342.65 -0 0)
(342.65 -0 0)
(342.65 -0 0)
(342.65 -0 0)
(342.65 -0 0)
(342.65 -0 0)
(342.65 -0 0)
(342.65 -0 0)
(342.65 -0 0)
(342.649 -0 0)
(342.649 -0 0)
(342.649 -0 0)
(342.649 -0 0)
(342.648 -0 0)
(342.648 -0 0)
(342.647 -0 0)
(342.646 -0 0)
(342.644 -0 0)
(342.641 -0 0)
(342.638 -0 0)
(342.633 -0 0)
(342.626 -0 0)
(342.616 -0 0)
(342.601 -0 0)
(342.579 -0 0)
(342.546 -0 0)
(342.495 -0 0)
(342.416 -0 0)
(342.291 -0 0)
(342.095 -0 0)
(341.788 -0 0)
(341.3 -0 0)
(340.508 -0 0)
(339.248 -0 0)
(337.394 -0 0)
(334.593 -0 0)
(329.665 -0 0)
(321.436 -0 0)
(310.565 -0 0)
(305.859 -0 0)
(307.72 -0 0)
(-173.366 0 0)
(-30.9877 0 0)
(114.683 -0 0)
(230.353 -0 0)
(366.863 -0 0)
(479.469 -0 0)
(570.777 -0 0)
(653.365 -0 0)
(728.148 -0 0)
(792.793 -0 0)
(848.379 -0 0)
(896.05 -0 0)
(936.484 -0 0)
(970.347 -0 0)
(998.581 -0 0)
(1021.6 -0 0)
(1040.31 -0 0)
(1055.27 -0 0)
(1067.03 -0 0)
(1076.18 -0 0)
(1083.24 -0 0)
(1088.66 -0 0)
(1092.76 -0 0)
(1095.83 -0 0)
(1098.12 -0 0)
(1099.81 -0 0)
(1101.04 -0 0)
(1101.94 -0 0)
(1102.58 -0 0)
(1103.05 -0 0)
(1103.38 -0 0)
(1103.61 -0 0)
(1103.77 -0 0)
(1103.89 -0 0)
(1103.97 -0 0)
(1104.02 -0 0)
(1104.06 -0 0)
(1104.08 -0 0)
(1104.1 -0 0)
(1104.11 -0 0)
(1104.12 -0 0)
(1104.13 -0 0)
(1104.13 -0 0)
(1104.13 -0 0)
(1104.14 -0 0)
(1104.14 -0 0)
(1104.14 -0 0)
(1104.14 -0 0)
(1104.14 -0 0)
(1104.14 -0 0)
(1104.14 -0 0)
(1104.14 -0 0)
(1104.14 -0 0)
(1104.14 -0 0)
(1104.14 -0 0)
(1104.14 -0 0)
(1104.14 -0 0)
(1104.14 -0 0)
(1104.14 -0 0)
(1104.14 -0 0)
(1104.14 -0 0)
(1104.14 -0 0)
(1104.14 -0 0)
(1104.14 -0 0)
(1104.14 -0 0)
(1104.14 -0 0)
(1104.14 -0 0)
(1104.14 -0 0)
(1104.14 -0 0)
(1104.14 -0 0)
(1104.14 -0 0)
(1104.14 -0 0)
(1104.14 -0 0)
(1104.13 -0 0)
(1104.13 -0 0)
(1104.13 -0 0)
(1104.13 -0 0)
(1104.12 -0 0)
(1104.11 -0 0)
(1104.1 -0 0)
(1104.09 -0 0)
(1104.07 -0 0)
(1104.03 -0 0)
(1103.99 -0 0)
(1103.91 -0 0)
(1103.81 -0 0)
(1103.64 -0 0)
(1103.37 -0 0)
(1102.96 -0 0)
(1102.3 -0 0)
(1101.26 -0 0)
(1099.57 -0 0)
(1096.89 -0 0)
(1092.9 -0 0)
(1086.6 -0 0)
(1075.74 -0 0)
(1059.32 -0 0)
(1039.6 -0 0)
(1028.08 -0 0)
(1019.07 -0 0)
(-215.274 0 0)
(43.6606 -0 0)
(276.037 -0 0)
(440.689 -0 0)
(631.445 -0 0)
(797.577 -0 0)
(934.107 -0 0)
(1054.27 -0 0)
(1160.97 -0 0)
(1252.57 -0 0)
(1330.25 -0 0)
(1396.18 -0 0)
(1451.27 -0 0)
(1496.43 -0 0)
(1533.9 -0 0)
(1564.17 -0 0)
(1588.45 -0 0)
(1607.75 -0 0)
(1622.63 -0 0)
(1634.16 -0 0)
(1643.01 -0 0)
(1649.74 -0 0)
(1654.79 -0 0)
(1658.57 -0 0)
(1661.36 -0 0)
(1663.4 -0 0)
(1664.9 -0 0)
(1665.97 -0 0)
(1666.74 -0 0)
(1667.29 -0 0)
(1667.68 -0 0)
(1667.95 -0 0)
(1668.14 -0 0)
(1668.28 -0 0)
(1668.37 -0 0)
(1668.43 -0 0)
(1668.48 -0 0)
(1668.51 -0 0)
(1668.53 -0 0)
(1668.54 -0 0)
(1668.55 -0 0)
(1668.56 -0 0)
(1668.56 -0 0)
(1668.56 -0 0)
(1668.56 -0 0)
(1668.57 -0 0)
(1668.57 -0 0)
(1668.57 -0 0)
(1668.57 -0 0)
(1668.57 -0 0)
(1668.57 -0 0)
(1668.57 -0 0)
(1668.57 -0 0)
(1668.57 -0 0)
(1668.57 -0 0)
(1668.57 -0 0)
(1668.57 -0 0)
(1668.57 -0 0)
(1668.57 -0 0)
(1668.57 -0 0)
(1668.57 -0 0)
(1668.57 -0 0)
(1668.57 -0 0)
(1668.57 -0 0)
(1668.57 -0 0)
(1668.57 -0 0)
(1668.57 -0 0)
(1668.57 -0 0)
(1668.57 -0 0)
(1668.57 -0 0)
(1668.57 -0 0)
(1668.57 -0 0)
(1668.56 -0 0)
(1668.56 -0 0)
(1668.56 -0 0)
(1668.56 -0 0)
(1668.55 -0 0)
(1668.55 -0 0)
(1668.54 -0 0)
(1668.52 -0 0)
(1668.51 -0 0)
(1668.48 -0 0)
(1668.44 -0 0)
(1668.39 -0 0)
(1668.31 -0 0)
(1668.18 -0 0)
(1667.99 -0 0)
(1667.7 -0 0)
(1667.23 -0 0)
(1666.5 -0 0)
(1665.34 -0 0)
(1663.46 -0 0)
(1660.5 -0 0)
(1656.06 -0 0)
(1648.92 -0 0)
(1636.65 -0 0)
(1618.96 -0 0)
(1597.02 -0 0)
(1575.53 -0 0)
(1543.91 -0 0)
(-257.275 0 0)
(73.7585 -0 0)
(352.128 -0 0)
(541.978 -0 0)
(763.479 -0 0)
(960.481 -0 0)
(1124.95 -0 0)
(1268.43 -0 0)
(1393.61 -0 0)
(1501.51 -0 0)
(1591.8 -0 0)
(1668.34 -0 0)
(1731.61 -0 0)
(1783.3 -0 0)
(1825.34 -0 0)
(1858.99 -0 0)
(1885.67 -0 0)
(1906.63 -0 0)
(1922.7 -0 0)
(1935.25 -0 0)
(1944.71 -0 0)
(1951.86 -0 0)
(1957.19 -0 0)
(1961.14 -0 0)
(1964.05 -0 0)
(1966.17 -0 0)
(1967.71 -0 0)
(1968.82 -0 0)
(1969.61 -0 0)
(1970.17 -0 0)
(1970.56 -0 0)
(1970.84 -0 0)
(1971.03 -0 0)
(1971.17 -0 0)
(1971.26 -0 0)
(1971.32 -0 0)
(1971.37 -0 0)
(1971.4 -0 0)
(1971.42 -0 0)
(1971.43 -0 0)
(1971.44 -0 0)
(1971.45 -0 0)
(1971.45 -0 0)
(1971.45 -0 0)
(1971.46 -0 0)
(1971.46 -0 0)
(1971.46 -0 0)
(1971.46 -0 0)
(1971.46 -0 0)
(1971.46 -0 0)
(1971.46 -0 0)
(1971.46 -0 0)
(1971.46 -0 0)
(1971.46 -0 0)
(1971.46 -0 0)
(1971.46 -0 0)
(1971.46 -0 0)
(1971.46 -0 0)
(1971.46 -0 0)
(1971.46 -0 0)
(1971.46 -0 0)
(1971.46 -0 0)
(1971.46 -0 0)
(1971.46 -0 0)
(1971.46 -0 0)
(1971.46 -0 0)
(1971.46 -0 0)
(1971.46 -0 0)
(1971.46 -0 0)
(1971.46 -0 0)
(1971.46 -0 0)
(1971.46 -0 0)
(1971.46 -0 0)
(1971.46 -0 0)
(1971.45 -0 0)
(1971.45 -0 0)
(1971.45 -0 0)
(1971.44 -0 0)
(1971.43 -0 0)
(1971.42 -0 0)
(1971.4 -0 0)
(1971.37 -0 0)
(1971.33 -0 0)
(1971.28 -0 0)
(1971.2 -0 0)
(1971.07 -0 0)
(1970.89 -0 0)
(1970.59 -0 0)
(1970.15 -0 0)
(1969.44 -0 0)
(1968.31 -0 0)
(1966.5 -0 0)
(1963.66 -0 0)
(1959.38 -0 0)
(1952.44 -0 0)
(1940.4 -0 0)
(1923.33 -0 0)
(1900.8 -0 0)
(1870.09 -0 0)
(1820.96 -0 0)
(-306.356 0 0)
(45.8669 -0 0)
(323.427 -0 0)
(510.6 -0 0)
(740.346 -0 0)
(946.155 -0 0)
(1119.73 -0 0)
(1272.04 -0 0)
(1404.3 -0 0)
(1519.56 -0 0)
(1614.19 -0 0)
(1695.59 -0 0)
(1762.29 -0 0)
(1816.35 -0 0)
(1859.9 -0 0)
(1894.54 -0 0)
(1921.81 -0 0)
(1943.09 -0 0)
(1959.1 -0 0)
(1971.98 -0 0)
(1981.47 -0 0)
(1988.59 -0 0)
(1993.88 -0 0)
(1997.79 -0 0)
(2000.65 -0 0)
(2002.73 -0 0)
(2004.23 -0 0)
(2005.3 -0 0)
(2006.07 -0 0)
(2006.61 -0 0)
(2007 -0 0)
(2007.26 -0 0)
(2007.45 -0 0)
(2007.58 -0 0)
(2007.67 -0 0)
(2007.73 -0 0)
(2007.77 -0 0)
(2007.8 -0 0)
(2007.82 -0 0)
(2007.83 -0 0)
(2007.84 -0 0)
(2007.85 -0 0)
(2007.85 -0 0)
(2007.85 -0 0)
(2007.86 -0 0)
(2007.86 -0 0)
(2007.86 -0 0)
(2007.86 -0 0)
(2007.86 -0 0)
(2007.86 -0 0)
(2007.86 -0 0)
(2007.86 -0 0)
(2007.86 -0 0)
(2007.86 -0 0)
(2007.86 -0 0)
(2007.86 -0 0)
(2007.86 -0 0)
(2007.86 -0 0)
(2007.86 -0 0)
(2007.86 -0 0)
(2007.86 -0 0)
(2007.86 -0 0)
(2007.86 -0 0)
(2007.86 -0 0)
(2007.86 -0 0)
(2007.86 -0 0)
(2007.86 -0 0)
(2007.86 -0 0)
(2007.86 -0 0)
(2007.86 -0 0)
(2007.86 -0 0)
(2007.86 -0 0)
(2007.86 -0 0)
(2007.85 -0 0)
(2007.85 -0 0)
(2007.85 -0 0)
(2007.84 -0 0)
(2007.84 -0 0)
(2007.83 -0 0)
(2007.82 -0 0)
(2007.8 -0 0)
(2007.77 -0 0)
(2007.74 -0 0)
(2007.68 -0 0)
(2007.61 -0 0)
(2007.49 -0 0)
(2007.31 -0 0)
(2007.04 -0 0)
(2006.62 -0 0)
(2005.96 -0 0)
(2004.91 -0 0)
(2003.23 -0 0)
(2000.58 -0 0)
(1996.63 -0 0)
(1990.18 -0 0)
(1978.72 -0 0)
(1962.58 -0 0)
(1940.47 -0 0)
(1903.12 -0 0)
(1848.69 -0 0)
(-362.254 0 0)
(-30.507 0 0)
(209.469 -0 0)
(366.649 -0 0)
(583.015 -0 0)
(777.871 -0 0)
(943.251 -0 0)
(1090.87 -0 0)
(1220.58 -0 0)
(1332.7 -0 0)
(1426.24 -0 0)
(1505.17 -0 0)
(1569.93 -0 0)
(1622.48 -0 0)
(1664.62 -0 0)
(1697.98 -0 0)
(1724.11 -0 0)
(1744.41 -0 0)
(1759.85 -0 0)
(1771.84 -0 0)
(1780.77 -0 0)
(1787.45 -0 0)
(1792.4 -0 0)
(1796.04 -0 0)
(1798.7 -0 0)
(1800.63 -0 0)
(1802.02 -0 0)
(1803.01 -0 0)
(1803.71 -0 0)
(1804.21 -0 0)
(1804.56 -0 0)
(1804.81 -0 0)
(1804.98 -0 0)
(1805.09 -0 0)
(1805.18 -0 0)
(1805.23 -0 0)
(1805.27 -0 0)
(1805.3 -0 0)
(1805.31 -0 0)
(1805.33 -0 0)
(1805.33 -0 0)
(1805.34 -0 0)
(1805.34 -0 0)
(1805.34 -0 0)
(1805.35 -0 0)
(1805.35 -0 0)
(1805.35 -0 0)
(1805.35 -0 0)
(1805.35 -0 0)
(1805.35 -0 0)
(1805.35 -0 0)
(1805.35 -0 0)
(1805.35 -0 0)
(1805.35 -0 0)
(1805.35 -0 0)
(1805.35 -0 0)
(1805.35 -0 0)
(1805.35 -0 0)
(1805.35 -0 0)
(1805.35 -0 0)
(1805.35 -0 0)
(1805.35 -0 0)
(1805.35 -0 0)
(1805.35 -0 0)
(1805.35 -0 0)
(1805.35 -0 0)
(1805.35 -0 0)
(1805.35 -0 0)
(1805.35 -0 0)
(1805.35 -0 0)
(1805.35 -0 0)
(1805.35 -0 0)
(1805.35 -0 0)
(1805.35 -0 0)
(1805.34 -0 0)
(1805.34 -0 0)
(1805.34 -0 0)
(1805.33 -0 0)
(1805.32 -0 0)
(1805.31 -0 0)
(1805.3 -0 0)
(1805.27 -0 0)
(1805.24 -0 0)
(1805.19 -0 0)
(1805.12 -0 0)
(1805.01 -0 0)
(1804.85 -0 0)
(1804.61 -0 0)
(1804.23 -0 0)
(1803.64 -0 0)
(1802.72 -0 0)
(1801.21 -0 0)
(1798.85 -0 0)
(1795.36 -0 0)
(1789.63 -0 0)
(1779.06 -0 0)
(1764.37 -0 0)
(1744.15 -0 0)
(1701.87 -0 0)
(1650.62 -0 0)
(-419.232 0 0)
(-136.291 0 0)
(42.7659 -0 0)
(148.868 -0 0)
(334.094 -0 0)
(502.117 -0 0)
(645.173 -0 0)
(775.976 -0 0)
(893.09 -0 0)
(994.546 -0 0)
(1079.84 -0 0)
(1151.48 -0 0)
(1210.26 -0 0)
(1257.95 -0 0)
(1296.08 -0 0)
(1326.16 -0 0)
(1349.64 -0 0)
(1367.8 -0 0)
(1381.65 -0 0)
(1392.22 -0 0)
(1400.12 -0 0)
(1406.01 -0 0)
(1410.37 -0 0)
(1413.56 -0 0)
(1415.88 -0 0)
(1417.56 -0 0)
(1418.77 -0 0)
(1419.63 -0 0)
(1420.24 -0 0)
(1420.67 -0 0)
(1420.97 -0 0)
(1421.18 -0 0)
(1421.33 -0 0)
(1421.43 -0 0)
(1421.5 -0 0)
(1421.55 -0 0)
(1421.58 -0 0)
(1421.61 -0 0)
(1421.62 -0 0)
(1421.63 -0 0)
(1421.64 -0 0)
(1421.64 -0 0)
(1421.64 -0 0)
(1421.65 -0 0)
(1421.65 -0 0)
(1421.65 -0 0)
(1421.65 -0 0)
(1421.65 -0 0)
(1421.65 -0 0)
(1421.65 -0 0)
(1421.65 -0 0)
(1421.65 -0 0)
(1421.65 -0 0)
(1421.65 -0 0)
(1421.65 -0 0)
(1421.65 -0 0)
(1421.65 -0 0)
(1421.65 -0 0)
(1421.65 -0 0)
(1421.65 -0 0)
(1421.65 -0 0)
(1421.65 -0 0)
(1421.65 -0 0)
(1421.65 -0 0)
(1421.65 -0 0)
(1421.65 -0 0)
(1421.65 -0 0)
(1421.65 -0 0)
(1421.65 -0 0)
(1421.65 -0 0)
(1421.65 -0 0)
(1421.65 -0 0)
(1421.65 -0 0)
(1421.65 -0 0)
(1421.65 -0 0)
(1421.64 -0 0)
(1421.64 -0 0)
(1421.63 -0 0)
(1421.63 -0 0)
(1421.62 -0 0)
(1421.6 -0 0)
(1421.58 -0 0)
(1421.56 -0 0)
(1421.51 -0 0)
(1421.45 -0 0)
(1421.36 -0 0)
(1421.23 -0 0)
(1421.02 -0 0)
(1420.7 -0 0)
(1420.2 -0 0)
(1419.42 -0 0)
(1418.15 -0 0)
(1416.15 -0 0)
(1413.25 -0 0)
(1408.43 -0 0)
(1399.02 -0 0)
(1386.37 -0 0)
(1369.23 -0 0)
(1322.27 -0 0)
(1276.7 -0 0)
(-472.415 0 0)
(-251.164 0 0)
(-143.867 0 0)
(-101.241 0 0)
(40.9942 -0 0)
(171.239 -0 0)
(281.473 -0 0)
(386.613 -0 0)
(483.024 -0 0)
(567.555 -0 0)
(638.992 -0 0)
(699.167 -0 0)
(748.552 -0 0)
(788.616 -0 0)
(820.578 -0 0)
(845.72 -0 0)
(865.269 -0 0)
(880.338 -0 0)
(891.814 -0 0)
(900.495 -0 0)
(906.969 -0 0)
(911.785 -0 0)
(915.332 -0 0)
(917.924 -0 0)
(919.806 -0 0)
(921.161 -0 0)
(922.132 -0 0)
(922.823 -0 0)
(923.313 -0 0)
(923.659 -0 0)
(923.899 -0 0)
(924.068 -0 0)
(924.186 -0 0)
(924.266 -0 0)
(924.322 -0 0)
(924.36 -0 0)
(924.385 -0 0)
(924.403 -0 0)
(924.414 -0 0)
(924.422 -0 0)
(924.428 -0 0)
(924.431 -0 0)
(924.433 -0 0)
(924.435 -0 0)
(924.436 -0 0)
(924.437 -0 0)
(924.437 -0 0)
(924.437 -0 0)
(924.437 -0 0)
(924.437 -0 0)
(924.438 -0 0)
(924.434 -0 0)
(924.437 -0 0)
(924.437 -0 0)
(924.438 -0 0)
(924.438 -0 0)
(924.438 -0 0)
(924.438 -0 0)
(924.438 -0 0)
(924.438 -0 0)
(924.438 -0 0)
(924.438 -0 0)
(924.438 -0 0)
(924.438 -0 0)
(924.438 -0 0)
(924.438 -0 0)
(924.438 -0 0)
(924.438 -0 0)
(924.438 -0 0)
(924.438 -0 0)
(924.438 -0 0)
(924.438 -0 0)
(924.437 -0 0)
(924.436 -0 0)
(924.435 -0 0)
(924.433 -0 0)
(924.43 -0 0)
(924.426 -0 0)
(924.421 -0 0)
(924.413 -0 0)
(924.402 -0 0)
(924.386 -0 0)
(924.362 -0 0)
(924.329 -0 0)
(924.28 -0 0)
(924.209 -0 0)
(924.101 -0 0)
(923.937 -0 0)
(923.687 -0 0)
(923.304 -0 0)
(922.698 -0 0)
(921.697 -0 0)
(920.118 -0 0)
(917.92 -0 0)
(914.162 -0 0)
(906.147 -0 0)
(896.006 -0 0)
(882.585 -0 0)
(829.524 -0 0)
(787.27 -0 0)
(-518.569 0 0)
(-358.969 0 0)
(-323.807 0 0)
(-348.319 0 0)
(-254.877 0 0)
(-168.481 0 0)
(-97.6819 0 0)
(-24.045 0 0)
(46.1411 -0 0)
(109.26 -0 0)
(162.829 -0 0)
(208.282 -0 0)
(245.659 -0 0)
(275.992 -0 0)
(300.142 -0 0)
(319.071 -0 0)
(333.726 -0 0)
(344.971 -0 0)
(353.504 -0 0)
(359.908 -0 0)
(364.665 -0 0)
(368.185 -0 0)
(370.771 -0 0)
(372.651 -0 0)
(374.01 -0 0)
(374.985 -0 0)
(375.682 -0 0)
(376.173 -0 0)
(376.523 -0 0)
(376.769 -0 0)
(376.941 -0 0)
(377.06 -0 0)
(377.143 -0 0)
(377.199 -0 0)
(377.238 -0 0)
(377.265 -0 0)
(377.283 -0 0)
(377.295 -0 0)
(377.303 -0 0)
(377.309 -0 0)
(377.312 -0 0)
(377.315 -0 0)
(377.316 -0 0)
(377.317 -0 0)
(377.318 -0 0)
(377.319 -0 0)
(377.319 -0 0)
(377.319 -0 0)
(377.319 -0 0)
(377.319 -0 0)
(377.319 -0 0)
(377.317 -0 0)
(377.319 -0 0)
(377.319 -0 0)
(377.319 -0 0)
(377.319 -0 0)
(377.319 -0 0)
(377.319 -0 0)
(377.319 -0 0)
(377.319 -0 0)
(377.32 -0 0)
(377.32 -0 0)
(377.32 -0 0)
(377.32 -0 0)
(377.32 -0 0)
(377.32 -0 0)
(377.32 -0 0)
(377.32 -0 0)
(377.32 -0 0)
(377.32 -0 0)
(377.32 -0 0)
(377.32 -0 0)
(377.319 -0 0)
(377.319 -0 0)
(377.318 -0 0)
(377.317 -0 0)
(377.315 -0 0)
(377.312 -0 0)
(377.308 -0 0)
(377.302 -0 0)
(377.294 -0 0)
(377.283 -0 0)
(377.267 -0 0)
(377.243 -0 0)
(377.209 -0 0)
(377.158 -0 0)
(377.083 -0 0)
(376.97 -0 0)
(376.798 -0 0)
(376.537 -0 0)
(376.126 -0 0)
(375.427 -0 0)
(374.324 -0 0)
(372.901 -0 0)
(370.315 -0 0)
(363.907 -0 0)
(356.66 -0 0)
(347.271 -0 0)
(286.675 -0 0)
(242.865 -0 0)
(-555.926 0 0)
(-450.082 0 0)
(-479.433 0 0)
(-567.416 0 0)
(-523.292 0 0)
(-482.435 0 0)
(-453.002 0 0)
(-414.578 0 0)
(-373.325 0 0)
(-335.045 0 0)
(-301.897 0 0)
(-273.479 0 0)
(-249.915 0 0)
(-230.769 0 0)
(-215.574 0 0)
(-203.74 0 0)
(-194.649 0 0)
(-187.731 0 0)
(-182.524 0 0)
(-178.663 0 0)
(-175.822 0 0)
(-173.745 0 0)
(-172.223 0 0)
(-171.13 0 0)
(-170.346 0 0)
(-169.789 0 0)
(-169.394 0 0)
(-169.117 0 0)
(-168.921 0 0)
(-168.784 0 0)
(-168.689 0 0)
(-168.624 0 0)
(-168.579 0 0)
(-168.548 0 0)
(-168.527 0 0)
(-168.512 0 0)
(-168.503 0 0)
(-168.496 0 0)
(-168.492 0 0)
(-168.489 0 0)
(-168.487 0 0)
(-168.486 0 0)
(-168.485 0 0)
(-168.484 0 0)
(-168.484 0 0)
(-168.484 0 0)
(-168.484 0 0)
(-168.484 0 0)
(-168.484 0 0)
(-168.484 0 0)
(-168.483 0 0)
(-168.485 0 0)
(-168.483 0 0)
(-168.484 0 0)
(-168.484 0 0)
(-168.483 0 0)
(-168.483 0 0)
(-168.483 0 0)
(-168.483 0 0)
(-168.483 0 0)
(-168.483 0 0)
(-168.483 0 0)
(-168.483 0 0)
(-168.483 0 0)
(-168.483 0 0)
(-168.483 0 0)
(-168.483 0 0)
(-168.483 0 0)
(-168.483 0 0)
(-168.483 0 0)
(-168.483 0 0)
(-168.483 0 0)
(-168.483 0 0)
(-168.483 0 0)
(-168.483 0 0)
(-168.484 0 0)
(-168.485 0 0)
(-168.487 0 0)
(-168.489 0 0)
(-168.492 0 0)
(-168.496 0 0)
(-168.503 0 0)
(-168.512 0 0)
(-168.525 0 0)
(-168.544 0 0)
(-168.571 0 0)
(-168.611 0 0)
(-168.67 0 0)
(-168.758 0 0)
(-168.887 0 0)
(-169.091 0 0)
(-169.468 0 0)
(-170.06 0 0)
(-170.659 0 0)
(-171.99 0 0)
(-176.606 0 0)
(-180.634 0 0)
(-185.528 0 0)
(-254.07 0 0)
(-299.133 0 0)
(-584.145 0 0)
(-520.326 0 0)
(-602.316 0 0)
(-745.07 0 0)
(-746.435 0 0)
(-749.431 0 0)
(-760.839 0 0)
(-758.148 0 0)
(-747.242 0 0)
(-735.121 0 0)
(-723.887 0 0)
(-713.709 0 0)
(-705.043 0 0)
(-697.974 0 0)
(-692.438 0 0)
(-688.242 0 0)
(-685.128 0 0)
(-682.844 0 0)
(-681.193 0 0)
(-680.038 0 0)
(-679.232 0 0)
(-678.673 0 0)
(-678.283 0 0)
(-678.02 0 0)
(-677.841 0 0)
(-677.722 0 0)
(-677.643 0 0)
(-677.591 0 0)
(-677.556 0 0)
(-677.533 0 0)
(-677.518 0 0)
(-677.508 0 0)
(-677.502 0 0)
(-677.498 0 0)
(-677.495 0 0)
(-677.494 0 0)
(-677.493 0 0)
(-677.492 0 0)
(-677.492 0 0)
(-677.491 0 0)
(-677.491 0 0)
(-677.491 0 0)
(-677.491 0 0)
(-677.491 0 0)
(-677.491 0 0)
(-677.491 0 0)
(-677.491 0 0)
(-677.491 0 0)
(-677.491 0 0)
(-677.491 0 0)
(-677.491 0 0)
(-677.491 0 0)
(-677.491 0 0)
(-677.491 0 0)
(-677.491 0 0)
(-677.491 0 0)
(-677.491 0 0)
(-677.491 0 0)
(-677.491 0 0)
(-677.491 0 0)
(-677.491 0 0)
(-677.491 0 0)
(-677.491 0 0)
(-677.491 0 0)
(-677.491 0 0)
(-677.49 0 0)
(-677.49 0 0)
(-677.49 0 0)
(-677.49 0 0)
(-677.49 0 0)
(-677.49 0 0)
(-677.49 0 0)
(-677.49 0 0)
(-677.49 0 0)
(-677.49 0 0)
(-677.49 0 0)
(-677.49 0 0)
(-677.49 0 0)
(-677.49 0 0)
(-677.491 0 0)
(-677.491 0 0)
(-677.492 0 0)
(-677.494 0 0)
(-677.496 0 0)
(-677.498 0 0)
(-677.501 0 0)
(-677.504 0 0)
(-677.508 0 0)
(-677.51 0 0)
(-677.503 0 0)
(-677.494 0 0)
(-677.537 0 0)
(-677.6 0 0)
(-677.353 0 0)
(-677.38 0 0)
(-680.011 0 0)
(-680.502 0 0)
(-679.996 0 0)
(-754.874 0 0)
(-790.521 0 0)
(-603.91 0 0)
(-569.552 0 0)
(-691.207 0 0)
(-876.979 0 0)
(-917.579 0 0)
(-960.175 0 0)
(-1009.47 0 0)
(-1040.89 0 0)
(-1059.91 0 0)
(-1073.9 0 0)
(-1084.83 0 0)
(-1093.2 0 0)
(-1099.76 0 0)
(-1105.06 0 0)
(-1109.42 0 0)
(-1113.06 0 0)
(-1116.06 0 0)
(-1118.51 0 0)
(-1120.49 0 0)
(-1122.09 0 0)
(-1123.35 0 0)
(-1124.33 0 0)
(-1125.09 0 0)
(-1125.66 0 0)
(-1126.1 0 0)
(-1126.42 0 0)
(-1126.66 0 0)
(-1126.83 0 0)
(-1126.96 0 0)
(-1127.05 0 0)
(-1127.12 0 0)
(-1127.16 0 0)
(-1127.2 0 0)
(-1127.22 0 0)
(-1127.23 0 0)
(-1127.25 0 0)
(-1127.25 0 0)
(-1127.26 0 0)
(-1127.26 0 0)
(-1127.26 0 0)
(-1127.27 0 0)
(-1127.27 0 0)
(-1127.27 0 0)
(-1127.27 0 0)
(-1127.27 0 0)
(-1127.27 0 0)
(-1127.27 0 0)
(-1127.27 0 0)
(-1127.27 0 0)
(-1127.27 0 0)
(-1127.27 0 0)
(-1127.27 0 0)
(-1127.27 0 0)
(-1127.27 0 0)
(-1127.27 0 0)
(-1127.27 0 0)
(-1127.27 0 0)
(-1127.27 0 0)
(-1127.27 0 0)
(-1127.27 0 0)
(-1127.27 0 0)
(-1127.27 0 0)
(-1127.27 0 0)
(-1127.27 0 0)
(-1127.27 0 0)
(-1127.27 0 0)
(-1127.27 0 0)
(-1127.27 0 0)
(-1127.27 0 0)
(-1127.27 0 0)
(-1127.27 0 0)
(-1127.27 0 0)
(-1127.27 0 0)
(-1127.27 0 0)
(-1127.27 0 0)
(-1127.27 0 0)
(-1127.26 0 0)
(-1127.26 0 0)
(-1127.26 0 0)
(-1127.26 0 0)
(-1127.26 0 0)
(-1127.25 0 0)
(-1127.25 0 0)
(-1127.24 0 0)
(-1127.22 0 0)
(-1127.2 0 0)
(-1127.17 0 0)
(-1127.12 0 0)
(-1127.03 0 0)
(-1126.89 0 0)
(-1126.67 0 0)
(-1126.37 0 0)
(-1125.9 0 0)
(-1124.81 0 0)
(-1123.52 0 0)
(-1124 0 0)
(-1120.69 0 0)
(-1113.8 0 0)
(-1191.32 0 0)
(-1188.38 0 0)
(-616.55 0 0)
(-600.206 0 0)
(-748.883 0 0)
(-966.215 0 0)
(-1038.4 0 0)
(-1114.67 0 0)
(-1197.5 0 0)
(-1260.12 0 0)
(-1307.36 0 0)
(-1346.37 0 0)
(-1378.84 0 0)
(-1405.36 0 0)
(-1426.92 0 0)
(-1444.42 0 0)
(-1458.58 0 0)
(-1469.95 0 0)
(-1479 0 0)
(-1486.14 0 0)
(-1491.7 0 0)
(-1496.01 0 0)
(-1499.31 0 0)
(-1501.81 0 0)
(-1503.68 0 0)
(-1505.08 0 0)
(-1506.11 0 0)
(-1506.87 0 0)
(-1507.42 0 0)
(-1507.82 0 0)
(-1508.1 0 0)
(-1508.31 0 0)
(-1508.45 0 0)
(-1508.55 0 0)
(-1508.62 0 0)
(-1508.67 0 0)
(-1508.7 0 0)
(-1508.73 0 0)
(-1508.74 0 0)
(-1508.75 0 0)
(-1508.76 0 0)
(-1508.77 0 0)
(-1508.77 0 0)
(-1508.77 0 0)
(-1508.77 0 0)
(-1508.77 0 0)
(-1508.77 0 0)
(-1508.77 0 0)
(-1508.77 0 0)
(-1508.78 0 0)
(-1508.78 0 0)
(-1508.78 0 0)
(-1508.78 0 0)
(-1508.78 0 0)
(-1508.78 0 0)
(-1508.78 0 0)
(-1508.78 0 0)
(-1508.78 0 0)
(-1508.78 0 0)
(-1508.78 0 0)
(-1508.78 0 0)
(-1508.78 0 0)
(-1508.78 0 0)
(-1508.78 0 0)
(-1508.78 0 0)
(-1508.78 0 0)
(-1508.78 0 0)
(-1508.77 0 0)
(-1508.77 0 0)
(-1508.77 0 0)
(-1508.77 0 0)
(-1508.77 0 0)
(-1508.77 0 0)
(-1508.77 0 0)
(-1508.77 0 0)
(-1508.77 0 0)
(-1508.77 0 0)
(-1508.77 0 0)
(-1508.77 0 0)
(-1508.77 0 0)
(-1508.76 0 0)
(-1508.76 0 0)
(-1508.75 0 0)
(-1508.74 0 0)
(-1508.73 0 0)
(-1508.71 0 0)
(-1508.68 0 0)
(-1508.63 0 0)
(-1508.56 0 0)
(-1508.46 0 0)
(-1508.29 0 0)
(-1508.01 0 0)
(-1507.58 0 0)
(-1506.96 0 0)
(-1505.97 0 0)
(-1504.06 0 0)
(-1501.45 0 0)
(-1499.68 0 0)
(-1492.28 0 0)
(-1477.58 0 0)
(-1554.06 0 0)
(-1490.57 0 0)
(-623.632 0 0)
(-616.053 0 0)
(-780.731 0 0)
(-1019.43 0 0)
(-1115.34 0 0)
(-1218.78 0 0)
(-1330 0 0)
(-1420.02 0 0)
(-1492.75 0 0)
(-1554.76 0 0)
(-1607.3 0 0)
(-1650.87 0 0)
(-1686.61 0 0)
(-1715.69 0 0)
(-1739.14 0 0)
(-1757.88 0 0)
(-1772.69 0 0)
(-1784.27 0 0)
(-1793.24 0 0)
(-1800.12 0 0)
(-1805.36 0 0)
(-1809.3 0 0)
(-1812.24 0 0)
(-1814.42 0 0)
(-1816.02 0 0)
(-1817.18 0 0)
(-1818.03 0 0)
(-1818.63 0 0)
(-1819.07 0 0)
(-1819.37 0 0)
(-1819.59 0 0)
(-1819.74 0 0)
(-1819.85 0 0)
(-1819.92 0 0)
(-1819.97 0 0)
(-1820.01 0 0)
(-1820.03 0 0)
(-1820.05 0 0)
(-1820.06 0 0)
(-1820.07 0 0)
(-1820.07 0 0)
(-1820.07 0 0)
(-1820.08 0 0)
(-1820.08 0 0)
(-1820.08 0 0)
(-1820.08 0 0)
(-1820.08 0 0)
(-1820.08 0 0)
(-1820.08 0 0)
(-1820.08 0 0)
(-1820.08 0 0)
(-1820.08 0 0)
(-1820.08 0 0)
(-1820.08 0 0)
(-1820.08 0 0)
(-1820.08 0 0)
(-1820.08 0 0)
(-1820.08 0 0)
(-1820.08 0 0)
(-1820.08 0 0)
(-1820.08 0 0)
(-1820.08 0 0)
(-1820.08 0 0)
(-1820.08 0 0)
(-1820.08 0 0)
(-1820.08 0 0)
(-1820.08 0 0)
(-1820.08 0 0)
(-1820.08 0 0)
(-1820.08 0 0)
(-1820.08 0 0)
(-1820.08 0 0)
(-1820.08 0 0)
(-1820.08 0 0)
(-1820.08 0 0)
(-1820.07 0 0)
(-1820.07 0 0)
(-1820.07 0 0)
(-1820.06 0 0)
(-1820.05 0 0)
(-1820.04 0 0)
(-1820.03 0 0)
(-1820.01 0 0)
(-1819.98 0 0)
(-1819.93 0 0)
(-1819.86 0 0)
(-1819.76 0 0)
(-1819.6 0 0)
(-1819.35 0 0)
(-1818.96 0 0)
(-1818.33 0 0)
(-1817.4 0 0)
(-1815.91 0 0)
(-1813.21 0 0)
(-1809.34 0 0)
(-1805.33 0 0)
(-1793.69 0 0)
(-1770.21 0 0)
(-1843.23 0 0)
(-1712.11 0 0)
(-626.711 0 0)
(-621.168 0 0)
(-793.339 0 0)
(-1045.09 0 0)
(-1157.65 0 0)
(-1281.96 0 0)
(-1416.3 0 0)
(-1529.51 0 0)
(-1624.42 0 0)
(-1706.82 0 0)
(-1777.39 0 0)
(-1836.4 0 0)
(-1885.05 0 0)
(-1924.71 0 0)
(-1956.68 0 0)
(-1982.18 0 0)
(-2002.27 0 0)
(-2017.94 0 0)
(-2030.03 0 0)
(-2039.28 0 0)
(-2046.28 0 0)
(-2051.54 0 0)
(-2055.46 0 0)
(-2058.35 0 0)
(-2060.46 0 0)
(-2062 0 0)
(-2063.12 0 0)
(-2063.92 0 0)
(-2064.49 0 0)
(-2064.89 0 0)
(-2065.17 0 0)
(-2065.37 0 0)
(-2065.51 0 0)
(-2065.61 0 0)
(-2065.67 0 0)
(-2065.72 0 0)
(-2065.75 0 0)
(-2065.77 0 0)
(-2065.78 0 0)
(-2065.79 0 0)
(-2065.8 0 0)
(-2065.8 0 0)
(-2065.81 0 0)
(-2065.81 0 0)
(-2065.81 0 0)
(-2065.81 0 0)
(-2065.81 0 0)
(-2065.81 0 0)
(-2065.81 0 0)
(-2065.81 0 0)
(-2065.81 0 0)
(-2065.81 0 0)
(-2065.81 0 0)
(-2065.81 0 0)
(-2065.81 0 0)
(-2065.81 0 0)
(-2065.81 0 0)
(-2065.81 0 0)
(-2065.81 0 0)
(-2065.81 0 0)
(-2065.81 0 0)
(-2065.81 0 0)
(-2065.81 0 0)
(-2065.81 0 0)
(-2065.81 0 0)
(-2065.81 0 0)
(-2065.81 0 0)
(-2065.81 0 0)
(-2065.81 0 0)
(-2065.81 0 0)
(-2065.81 0 0)
(-2065.81 0 0)
(-2065.81 0 0)
(-2065.81 0 0)
(-2065.81 0 0)
(-2065.8 0 0)
(-2065.8 0 0)
(-2065.79 0 0)
(-2065.79 0 0)
(-2065.78 0 0)
(-2065.76 0 0)
(-2065.75 0 0)
(-2065.72 0 0)
(-2065.68 0 0)
(-2065.62 0 0)
(-2065.53 0 0)
(-2065.4 0 0)
(-2065.19 0 0)
(-2064.87 0 0)
(-2064.36 0 0)
(-2063.56 0 0)
(-2062.35 0 0)
(-2060.4 0 0)
(-2056.97 0 0)
(-2051.91 0 0)
(-2045.76 0 0)
(-2029.91 0 0)
(-1997.44 0 0)
(-2065.98 0 0)
(-1871.71 0 0)
(-627.171 0 0)
(-619.451 0 0)
(-793.236 0 0)
(-1051.84 0 0)
(-1175.23 0 0)
(-1314.81 0 0)
(-1467.22 0 0)
(-1599.33 0 0)
(-1712.82 0 0)
(-1812.59 0 0)
(-1898.7 0 0)
(-1971.14 0 0)
(-2031.08 0 0)
(-2080.03 0 0)
(-2119.5 0 0)
(-2150.94 0 0)
(-2175.69 0 0)
(-2194.96 0 0)
(-2209.8 0 0)
(-2221.13 0 0)
(-2229.7 0 0)
(-2236.12 0 0)
(-2240.89 0 0)
(-2244.4 0 0)
(-2246.98 0 0)
(-2248.84 0 0)
(-2250.19 0 0)
(-2251.16 0 0)
(-2251.85 0 0)
(-2252.34 0 0)
(-2252.68 0 0)
(-2252.92 0 0)
(-2253.09 0 0)
(-2253.2 0 0)
(-2253.28 0 0)
(-2253.34 0 0)
(-2253.37 0 0)
(-2253.4 0 0)
(-2253.42 0 0)
(-2253.43 0 0)
(-2253.43 0 0)
(-2253.44 0 0)
(-2253.44 0 0)
(-2253.45 0 0)
(-2253.45 0 0)
(-2253.45 0 0)
(-2253.45 0 0)
(-2253.45 0 0)
(-2253.45 0 0)
(-2253.45 0 0)
(-2253.45 0 0)
(-2253.45 0 0)
(-2253.45 0 0)
(-2253.45 0 0)
(-2253.45 0 0)
(-2253.45 0 0)
(-2253.45 0 0)
(-2253.45 0 0)
(-2253.45 0 0)
(-2253.45 0 0)
(-2253.45 0 0)
(-2253.45 0 0)
(-2253.45 0 0)
(-2253.45 0 0)
(-2253.45 0 0)
(-2253.45 0 0)
(-2253.45 0 0)
(-2253.45 0 0)
(-2253.45 0 0)
(-2253.45 0 0)
(-2253.45 0 0)
(-2253.45 0 0)
(-2253.45 0 0)
(-2253.44 0 0)
(-2253.44 0 0)
(-2253.44 0 0)
(-2253.43 0 0)
(-2253.43 0 0)
(-2253.42 0 0)
(-2253.41 0 0)
(-2253.39 0 0)
(-2253.37 0 0)
(-2253.34 0 0)
(-2253.29 0 0)
(-2253.22 0 0)
(-2253.11 0 0)
(-2252.95 0 0)
(-2252.7 0 0)
(-2252.32 0 0)
(-2251.71 0 0)
(-2250.75 0 0)
(-2249.3 0 0)
(-2246.95 0 0)
(-2242.85 0 0)
(-2236.74 0 0)
(-2228.64 0 0)
(-2208.85 0 0)
(-2167.93 0 0)
(-2232.11 0 0)
(-1985.4 0 0)
(-626.151 0 0)
(-614.189 0 0)
(-786.248 0 0)
(-1047.52 0 0)
(-1177.33 0 0)
(-1327.5 0 0)
(-1493.41 0 0)
(-1640.25 0 0)
(-1768.56 0 0)
(-1882.44 0 0)
(-1981.31 0 0)
(-2064.86 0 0)
(-2134.18 0 0)
(-2190.87 0 0)
(-2236.61 0 0)
(-2273.02 0 0)
(-2301.66 0 0)
(-2323.94 0 0)
(-2341.08 0 0)
(-2354.15 0 0)
(-2364.02 0 0)
(-2371.41 0 0)
(-2376.9 0 0)
(-2380.94 0 0)
(-2383.89 0 0)
(-2386.04 0 0)
(-2387.58 0 0)
(-2388.69 0 0)
(-2389.48 0 0)
(-2390.03 0 0)
(-2390.43 0 0)
(-2390.7 0 0)
(-2390.89 0 0)
(-2391.02 0 0)
(-2391.11 0 0)
(-2391.18 0 0)
(-2391.22 0 0)
(-2391.25 0 0)
(-2391.27 0 0)
(-2391.28 0 0)
(-2391.29 0 0)
(-2391.29 0 0)
(-2391.3 0 0)
(-2391.3 0 0)
(-2391.3 0 0)
(-2391.3 0 0)
(-2391.31 0 0)
(-2391.31 0 0)
(-2391.31 0 0)
(-2391.31 0 0)
(-2391.31 0 0)
(-2391.31 0 0)
(-2391.31 0 0)
(-2391.31 0 0)
(-2391.31 0 0)
(-2391.31 0 0)
(-2391.31 0 0)
(-2391.31 0 0)
(-2391.31 0 0)
(-2391.31 0 0)
(-2391.31 0 0)
(-2391.31 0 0)
(-2391.31 0 0)
(-2391.31 0 0)
(-2391.31 0 0)
(-2391.31 0 0)
(-2391.31 0 0)
(-2391.31 0 0)
(-2391.31 0 0)
(-2391.3 0 0)
(-2391.3 0 0)
(-2391.3 0 0)
(-2391.3 0 0)
(-2391.3 0 0)
(-2391.3 0 0)
(-2391.29 0 0)
(-2391.29 0 0)
(-2391.28 0 0)
(-2391.27 0 0)
(-2391.26 0 0)
(-2391.24 0 0)
(-2391.21 0 0)
(-2391.18 0 0)
(-2391.12 0 0)
(-2391.04 0 0)
(-2390.92 0 0)
(-2390.73 0 0)
(-2390.45 0 0)
(-2390.01 0 0)
(-2389.32 0 0)
(-2388.24 0 0)
(-2386.58 0 0)
(-2383.89 0 0)
(-2379.24 0 0)
(-2372.23 0 0)
(-2362.44 0 0)
(-2339.22 0 0)
(-2291.01 0 0)
(-2351.63 0 0)
(-2065.11 0 0)
(-624.528 0 0)
(-607.963 0 0)
(-777.052 0 0)
(-1038.55 0 0)
(-1171.72 0 0)
(-1328.81 0 0)
(-1504.22 0 0)
(-1661.8 0 0)
(-1801.2 0 0)
(-1925.77 0 0)
(-2034.4 0 0)
(-2126.5 0 0)
(-2203.07 0 0)
(-2265.75 0 0)
(-2316.34 0 0)
(-2356.61 0 0)
(-2388.28 0 0)
(-2412.89 0 0)
(-2431.82 0 0)
(-2446.25 0 0)
(-2457.13 0 0)
(-2465.27 0 0)
(-2471.31 0 0)
(-2475.76 0 0)
(-2479.01 0 0)
(-2481.36 0 0)
(-2483.06 0 0)
(-2484.28 0 0)
(-2485.14 0 0)
(-2485.75 0 0)
(-2486.18 0 0)
(-2486.48 0 0)
(-2486.69 0 0)
(-2486.84 0 0)
(-2486.94 0 0)
(-2487.01 0 0)
(-2487.05 0 0)
(-2487.08 0 0)
(-2487.1 0 0)
(-2487.12 0 0)
(-2487.13 0 0)
(-2487.14 0 0)
(-2487.14 0 0)
(-2487.14 0 0)
(-2487.14 0 0)
(-2487.15 0 0)
(-2487.15 0 0)
(-2487.15 0 0)
(-2487.15 0 0)
(-2487.15 0 0)
(-2487.15 0 0)
(-2487.15 0 0)
(-2487.15 0 0)
(-2487.15 0 0)
(-2487.15 0 0)
(-2487.15 0 0)
(-2487.15 0 0)
(-2487.15 0 0)
(-2487.15 0 0)
(-2487.15 0 0)
(-2487.15 0 0)
(-2487.15 0 0)
(-2487.15 0 0)
(-2487.15 0 0)
(-2487.15 0 0)
(-2487.15 0 0)
(-2487.15 0 0)
(-2487.15 0 0)
(-2487.15 0 0)
(-2487.15 0 0)
(-2487.15 0 0)
(-2487.14 0 0)
(-2487.14 0 0)
(-2487.14 0 0)
(-2487.14 0 0)
(-2487.14 0 0)
(-2487.13 0 0)
(-2487.12 0 0)
(-2487.11 0 0)
(-2487.1 0 0)
(-2487.08 0 0)
(-2487.05 0 0)
(-2487.01 0 0)
(-2486.94 0 0)
(-2486.85 0 0)
(-2486.72 0 0)
(-2486.52 0 0)
(-2486.21 0 0)
(-2485.73 0 0)
(-2484.98 0 0)
(-2483.79 0 0)
(-2481.97 0 0)
(-2479.02 0 0)
(-2473.93 0 0)
(-2466.22 0 0)
(-2455.1 0 0)
(-2429.13 0 0)
(-2375.2 0 0)
(-2433.3 0 0)
(-2119.01 0 0)
(-622.932 0 0)
(-602.648 0 0)
(-769.102 0 0)
(-1029.78 0 0)
(-1164.4 0 0)
(-1325.59 0 0)
(-1507.02 0 0)
(-1671.61 0 0)
(-1818.38 0 0)
(-1950.14 0 0)
(-2065.39 0 0)
(-2163.29 0 0)
(-2244.8 0 0)
(-2311.59 0 0)
(-2365.5 0 0)
(-2408.41 0 0)
(-2442.15 0 0)
(-2468.36 0 0)
(-2488.51 0 0)
(-2503.86 0 0)
(-2515.44 0 0)
(-2524.09 0 0)
(-2530.51 0 0)
(-2535.24 0 0)
(-2538.69 0 0)
(-2541.19 0 0)
(-2542.99 0 0)
(-2544.28 0 0)
(-2545.2 0 0)
(-2545.85 0 0)
(-2546.3 0 0)
(-2546.62 0 0)
(-2546.84 0 0)
(-2547 0 0)
(-2547.1 0 0)
(-2547.18 0 0)
(-2547.22 0 0)
(-2547.26 0 0)
(-2547.28 0 0)
(-2547.3 0 0)
(-2547.31 0 0)
(-2547.31 0 0)
(-2547.32 0 0)
(-2547.32 0 0)
(-2547.32 0 0)
(-2547.32 0 0)
(-2547.33 0 0)
(-2547.33 0 0)
(-2547.33 0 0)
(-2547.33 0 0)
(-2547.33 0 0)
(-2547.33 0 0)
(-2547.33 0 0)
(-2547.33 0 0)
(-2547.33 0 0)
(-2547.33 0 0)
(-2547.33 0 0)
(-2547.33 0 0)
(-2547.33 0 0)
(-2547.33 0 0)
(-2547.33 0 0)
(-2547.33 0 0)
(-2547.33 0 0)
(-2547.33 0 0)
(-2547.33 0 0)
(-2547.33 0 0)
(-2547.33 0 0)
(-2547.33 0 0)
(-2547.33 0 0)
(-2547.33 0 0)
(-2547.32 0 0)
(-2547.32 0 0)
(-2547.32 0 0)
(-2547.32 0 0)
(-2547.32 0 0)
(-2547.31 0 0)
(-2547.31 0 0)
(-2547.3 0 0)
(-2547.29 0 0)
(-2547.27 0 0)
(-2547.25 0 0)
(-2547.22 0 0)
(-2547.18 0 0)
(-2547.11 0 0)
(-2547.02 0 0)
(-2546.87 0 0)
(-2546.66 0 0)
(-2546.33 0 0)
(-2545.83 0 0)
(-2545.03 0 0)
(-2543.77 0 0)
(-2541.84 0 0)
(-2538.71 0 0)
(-2533.33 0 0)
(-2525.13 0 0)
(-2513.08 0 0)
(-2485.21 0 0)
(-2427.36 0 0)
(-2483.92 0 0)
(-2152.41 0 0)
(-621.93 0 0)
(-599.624 0 0)
(-764.627 0 0)
(-1024.55 0 0)
(-1159.66 0 0)
(-1322.77 0 0)
(-1507.11 0 0)
(-1675.16 0 0)
(-1825.61 0 0)
(-1960.99 0 0)
(-2079.56 0 0)
(-2180.41 0 0)
(-2264.42 0 0)
(-2333.28 0 0)
(-2388.87 0 0)
(-2433.12 0 0)
(-2467.9 0 0)
(-2494.93 0 0)
(-2515.7 0 0)
(-2531.52 0 0)
(-2543.44 0 0)
(-2552.36 0 0)
(-2558.97 0 0)
(-2563.84 0 0)
(-2567.39 0 0)
(-2569.96 0 0)
(-2571.82 0 0)
(-2573.15 0 0)
(-2574.09 0 0)
(-2574.76 0 0)
(-2575.23 0 0)
(-2575.56 0 0)
(-2575.78 0 0)
(-2575.94 0 0)
(-2576.05 0 0)
(-2576.12 0 0)
(-2576.18 0 0)
(-2576.21 0 0)
(-2576.23 0 0)
(-2576.25 0 0)
(-2576.26 0 0)
(-2576.27 0 0)
(-2576.27 0 0)
(-2576.27 0 0)
(-2576.28 0 0)
(-2576.28 0 0)
(-2576.28 0 0)
(-2576.28 0 0)
(-2576.28 0 0)
(-2576.28 0 0)
(-2576.28 0 0)
(-2576.28 0 0)
(-2576.28 0 0)
(-2576.28 0 0)
(-2576.28 0 0)
(-2576.28 0 0)