/*--------------------------------*- C++ -*----------------------------------*\
| =========                 |                                                 |
| \\      /  F ield         | foam-extend: Open Source CFD                    |
|  \\    /   O peration     | Version:     5.0                                |
|   \\  /    A nd           | Web:         http://www.foam-extend.org         |
|    \\/     M anipulation  |                                                 |
\*---------------------------------------------------------------------------*/
FoamFile
{
    version     2.0;
    format      ascii;
    class       volScalarField;
    location    "0.03";
    object      p;
}
// * * * * * * * * * * * * * * * * * * * * * * * * * * * * * * * * * * * * * //

dimensions      [1 -1 -2 0 0 0 0];

internalField   nonuniform List<scalar> 
4000
(
10952.6
10798.8
10752
10678
10581.5
10490.7
10403.1
10312.4
10218.8
10123.7
10026.9
9928.31
9827.89
9725.64
9621.74
9516.42
9409.83
9302.12
9193.46
9084.02
8973.95
8863.36
8752.36
8641.03
8529.45
8417.67
8305.75
8193.72
8081.6
7969.41
7857.18
7744.91
7632.62
7520.31
7407.98
7295.65
7183.31
7070.97
6958.62
6846.27
6733.92
6621.57
6509.22
6396.86
6284.51
6172.16
6059.8
5947.45
5835.09
5722.74
5610.38
5498.03
5385.68
5273.32
5160.97
5048.61
4936.26
4823.91
4711.55
4599.2
4486.84
4374.49
4262.13
4149.78
4037.43
3925.07
3812.72
3700.36
3588.01
3475.65
3363.3
3250.95
3138.59
3026.24
2913.88
2801.53
2689.18
2576.83
2464.47
2352.12
2239.78
2127.43
2015.09
1902.75
1790.43
1678.12
1565.84
1453.6
1341.42
1229.34
1117.39
1005.65
894.222
783.359
673.172
563.39
455.227
355.778
280.628
126.145
10945.9
10792.9
10748.9
10674.8
10578
10487.8
10400.7
10310.2
10216.9
10122
10025.5
9927.07
9826.84
9724.76
9621.02
9515.84
9409.35
9301.75
9193.17
9083.79
8973.77
8863.22
8752.25
8640.95
8529.39
8417.62
8305.72
8193.7
8081.58
7969.4
7857.17
7744.9
7632.61
7520.3
7407.98
7295.65
7183.31
7070.97
6958.62
6846.27
6733.92
6621.57
6509.22
6396.86
6284.51
6172.16
6059.8
5947.45
5835.09
5722.74
5610.38
5498.03
5385.68
5273.32
5160.97
5048.61
4936.26
4823.91
4711.55
4599.2
4486.84
4374.49
4262.13
4149.78
4037.43
3925.07
3812.72
3700.36
3588.01
3475.65
3363.3
3250.95
3138.59
3026.24
2913.88
2801.53
2689.18
2576.83
2464.47
2352.12
2239.78
2127.43
2015.09
1902.76
1790.43
1678.13
1565.85
1453.61
1341.44
1229.37
1117.44
1005.72
894.332
783.526
673.438
563.756
455.489
355.332
281.434
127.301
10944.4
10787.6
10747.8
10673.7
10575.9
10486
10399.3
10309
10215.8
10121.1
10024.7
9926.47
9826.36
9724.37
9620.7
9515.59
9409.16
9301.6
9193.05
9083.7
8973.7
8863.18
8752.22
8640.92
8529.37
8417.61
8305.71
8193.69
8081.58
7969.39
7857.16
7744.9
7632.61
7520.3
7407.98
7295.65
7183.31
7070.97
6958.62
6846.27
6733.92
6621.57
6509.22
6396.86
6284.51
6172.16
6059.8
5947.45
5835.09
5722.74
5610.38
5498.03
5385.68
5273.32
5160.97
5048.61
4936.26
4823.91
4711.55
4599.2
4486.84
4374.49
4262.13
4149.78
4037.43
3925.07
3812.72
3700.36
3588.01
3475.65
3363.3
3250.95
3138.59
3026.24
2913.88
2801.53
2689.18
2576.83
2464.47
2352.12
2239.78
2127.43
2015.09
1902.76
1790.43
1678.13
1565.85
1453.62
1341.45
1229.38
1117.46
1005.74
894.362
783.578
673.542
563.874
455.42
354.698
283.263
129.494
10949.2
10785.5
10750
10675.9
10576.4
10486.5
10400.1
10309.7
10216.4
10121.6
10025.2
9926.86
9826.71
9724.68
9620.98
9515.83
9409.37
9301.77
9193.19
9083.81
8973.79
8863.25
8752.27
8640.97
8529.4
8417.63
8305.73
8193.71
8081.59
7969.4
7857.17
7744.9
7632.61
7520.3
7407.98
7295.65
7183.31
7070.97
6958.62
6846.27
6733.92
6621.57
6509.22
6396.86
6284.51
6172.16
6059.8
5947.45
5835.09
5722.74
5610.38
5498.03
5385.68
5273.32
5160.97
5048.61
4936.26
4823.91
4711.55
4599.2
4486.84
4374.49
4262.13
4149.78
4037.43
3925.07
3812.72
3700.36
3588.01
3475.65
3363.3
3250.95
3138.59
3026.24
2913.88
2801.53
2689.18
2576.83
2464.47
2352.12
2239.78
2127.43
2015.09
1902.76
1790.43
1678.13
1565.85
1453.61
1341.44
1229.36
1117.43
1005.71
894.3
783.493
673.446
563.701
454.991
353.699
283.279
130.094
10960.4
10788
10756.4
10681.9
10580
10489.8
10403.3
10312.5
10218.7
10123.6
10027
9928.43
9828.04
9725.81
9621.93
9516.61
9410.01
9302.28
9193.59
9084.13
8974.05
8863.44
8752.42
8641.08
8529.49
8417.7
8305.78
8193.74
8081.61
7969.42
7857.18
7744.91
7632.62
7520.31
7407.98
7295.65
7183.31
7070.97
6958.62
6846.27
6733.92
6621.57
6509.22
6396.86
6284.51
6172.16
6059.8
5947.45
5835.09
5722.74
5610.38
5498.03
5385.68
5273.32
5160.97
5048.61
4936.26
4823.91
4711.55
4599.2
4486.84
4374.49
4262.13
4149.78
4037.43
3925.07
3812.72
3700.36
3588.01
3475.65
3363.3
3250.95
3138.59
3026.24
2913.88
2801.53
2689.18
2576.83
2464.47
2352.12
2239.77
2127.43
2015.09
1902.75
1790.43
1678.12
1565.84
1453.59
1341.41
1229.32
1117.37
1005.61
894.146
783.269
673.146
563.233
454.192
352.154
279.545
127.334
10977.1
10795.1
10767
10691.6
10587
10496
10409
10317.5
10223
10127.4
10030.2
9931.18
9830.36
9727.75
9623.54
9517.92
9411.07
9303.13
9194.26
9084.66
8974.45
8863.75
8752.66
8641.26
8529.62
8417.79
8305.85
8193.8
8081.65
7969.45
7857.2
7744.93
7632.63
7520.31
7407.99
7295.65
7183.31
7070.97
6958.62
6846.27
6733.92
6621.57
6509.22
6396.86
6284.51
6172.16
6059.8
5947.45
5835.09
5722.74
5610.38
5498.03
5385.68
5273.32
5160.97
5048.61
4936.26
4823.91
4711.55
4599.2
4486.84
4374.49
4262.13
4149.78
4037.43
3925.07
3812.72
3700.36
3588.01
3475.65
3363.3
3250.95
3138.59
3026.24
2913.88
2801.53
2689.18
2576.83
2464.47
2352.12
2239.77
2127.43
2015.08
1902.75
1790.42
1678.11
1565.82
1453.56
1341.37
1229.25
1117.27
1005.45
893.907
782.915
672.651
562.484
453.044
350.06
271.648
120.816
10997.9
10806.4
10781.1
10704.5
10596.9
10504.8
10417.2
10324.6
10229.2
10132.7
10034.8
9935.06
9833.6
9730.44
9625.75
9519.72
9412.51
9304.27
9195.17
9085.36
8975
8864.17
8752.97
8641.49
8529.8
8417.92
8305.94
8193.87
8081.7
7969.48
7857.23
7744.95
7632.64
7520.32
7408
7295.66
7183.32
7070.97
6958.62
6846.27
6733.92
6621.57
6509.22
6396.86
6284.51
6172.16
6059.8
5947.45
5835.09
5722.74
5610.38
5498.03
5385.68
5273.32
5160.97
5048.61
4936.26
4823.91
4711.55
4599.2
4486.84
4374.49
4262.13
4149.78
4037.43
3925.07
3812.72
3700.36
3588.01
3475.65
3363.3
3250.95
3138.59
3026.24
2913.88
2801.53
2689.18
2576.82
2464.47
2352.12
2239.77
2127.42
2015.08
1902.74
1790.41
1678.09
1565.79
1453.53
1341.31
1229.17
1117.14
1005.25
893.586
782.437
671.97
561.468
451.582
347.535
260.533
111.406
11021.4
10820.8
10797.8
10720
10609.2
10515.9
10427.4
10333.6
10236.9
10139.3
10040.5
9939.89
9837.64
9733.78
9628.49
9521.94
9414.28
9305.68
9196.27
9086.22
8975.65
8864.67
8753.35
8641.78
8530.01
8418.08
8306.06
8193.96
8081.76
7969.53
7857.26
7744.97
7632.66
7520.34
7408
7295.66
7183.32
7070.97
6958.62
6846.27
6733.92
6621.57
6509.22
6396.86
6284.51
6172.16
6059.8
5947.45
5835.09
5722.74
5610.38
5498.03
5385.68
5273.32
5160.97
5048.61
4936.26
4823.91
4711.55
4599.2
4486.84
4374.49
4262.13
4149.78
4037.43
3925.07
3812.72
3700.36
3588.01
3475.65
3363.3
3250.95
3138.59
3026.24
2913.88
2801.53
2689.18
2576.82
2464.47
2352.12
2239.77
2127.42
2015.07
1902.73
1790.4
1678.07
1565.76
1453.48
1341.24
1229.06
1116.97
1004.99
893.192
781.848
671.119
560.214
449.86
344.756
247.849
100.627
11045.9
10837.3
10816.1
10737.1
10623.3
10528.7
10439.2
10343.9
10245.8
10147
10047.1
9945.49
9842.32
9737.64
9631.64
9524.48
9416.31
9307.28
9197.52
9087.19
8976.4
8865.24
8753.78
8642.1
8530.25
8418.25
8306.19
8194.05
8081.83
7969.58
7857.3
7744.99
7632.68
7520.35
7408.01
7295.67
7183.32
7070.98
6958.63
6846.28
6733.92
6621.57
6509.22
6396.86
6284.51
6172.16
6059.8
5947.45
5835.09
5722.74
5610.38
5498.03
5385.68
5273.32
5160.97
5048.61
4936.26
4823.9
4711.55
4599.2
4486.84
4374.49
4262.13
4149.78
4037.43
3925.07
3812.72
3700.36
3588.01
3475.65
3363.3
3250.95
3138.59
3026.24
2913.88
2801.53
2689.18
2576.82
2464.47
2352.12
2239.77
2127.42
2015.07
1902.72
1790.38
1678.05
1565.73
1453.43
1341.16
1228.93
1116.78
1004.7
892.736
781.163
670.121
558.757
447.941
341.879
235.182
89.9263
11070.1
10854.7
10835
10754.9
10638.5
10542.6
10451.9
10355.2
10255.7
10155.5
10054.4
9951.67
9847.47
9741.88
9635.1
9527.26
9418.53
9309.02
9198.89
9088.25
8977.21
8865.85
8754.24
8642.45
8530.5
8418.43
8306.33
8194.16
8081.9
7969.63
7857.33
7745.02
7632.69
7520.36
7408.02
7295.68
7183.33
7070.98
6958.63
6846.28
6733.92
6621.57
6509.22
6396.86
6284.51
6172.16
6059.8
5947.45
5835.09
5722.74
5610.38
5498.03
5385.68
5273.32
5160.97
5048.61
4936.26
4823.9
4711.55
4599.2
4486.84
4374.49
4262.13
4149.78
4037.43
3925.07
3812.72
3700.36
3588.01
3475.65
3363.3
3250.95
3138.59
3026.24
2913.88
2801.53
2689.18
2576.82
2464.47
2352.11
2239.76
2127.41
2015.06
1902.71
1790.37
1678.03
1565.69
1453.37
1341.06
1228.79
1116.56
1004.37
892.23
780.402
669.001
557.135
445.871
338.957
223.342
80.0121
11093.1
10872
10853.5
10772.8
10654.1
10556.9
10465.2
10367.1
10266
10164.6
10062.1
9958.2
9852.91
9746.36
9638.74
9530.19
9420.85
9310.86
9200.32
9089.36
8978.06
8866.49
8754.73
8642.81
8530.77
8418.64
8306.47
8194.26
8081.98
7969.68
7857.37
7745.05
7632.71
7520.37
7408.03
7295.68
7183.33
7070.98
6958.63
6846.28
6733.92
6621.57
6509.22
6396.86
6284.51
6172.16
6059.8
5947.45
5835.09
5722.74
5610.38
5498.03
5385.68
5273.32
5160.97
5048.61
4936.26
4823.9
4711.55
4599.2
4486.84
4374.49
4262.13
4149.78
4037.43
3925.07
3812.72
3700.36
3588.01
3475.65
3363.3
3250.95
3138.59
3026.24
2913.88
2801.53
2689.17
2576.82
2464.47
2352.11
2239.76
2127.41
2015.05
1902.7
1790.35
1678
1565.65
1453.31
1340.97
1228.64
1116.33
1004.01
891.691
779.589
667.796
555.399
443.706
335.982
212.142
70.6808
11114
10888.4
10871
10789.8
10669.4
10571.2
10478.5
10379.1
10276.6
10173.7
10070
9964.88
9858.46
9750.93
9642.45
9533.18
9423.22
9312.72
9201.77
9090.48
8978.91
8867.14
8755.21
8643.17
8531.04
8418.84
8306.62
8194.36
8082.05
7969.74
7857.41
7745.07
7632.73
7520.39
7408.04
7295.69
7183.34
7070.99
6958.63
6846.28
6733.93
6621.57
6509.22
6396.86
6284.51
6172.16
6059.8
5947.45
5835.09
5722.74
5610.38
5498.03
5385.68
5273.32
5160.97
5048.61
4936.26
4823.9
4711.55
4599.2
4486.84
4374.49
4262.13
4149.78
4037.43
3925.07
3812.72
3700.36
3588.01
3475.65
3363.3
3250.95
3138.59
3026.24
2913.88
2801.53
2689.17
2576.82
2464.46
2352.11
2239.76
2127.4
2015.04
1902.69
1790.33
1677.97
1565.61
1453.24
1340.87
1228.49
1116.1
1003.65
891.136
778.752
666.545
553.6
441.489
332.931
201.218
61.6061
11132.6
10903.6
10886.9
10805.6
10683.8
10584.8
10491.4
10390.7
10287
10182.8
10077.8
9971.47
9863.96
9755.45
9646.12
9536.12
9425.56
9314.55
9203.2
9091.58
8979.75
8867.78
8755.69
8643.53
8531.31
8419.03
8306.76
8194.46
8082.13
7969.79
7857.45
7745.1
7632.75
7520.4
7408.05
7295.7
7183.34
7070.99
6958.63
6846.28
6733.93
6621.57
6509.22
6396.86
6284.51
6172.16
6059.8
5947.45
5835.09
5722.74
5610.38
5498.03
5385.68
5273.32
5160.97
5048.61
4936.26
4823.9
4711.55
4599.2
4486.84
4374.49
4262.13
4149.78
4037.43
3925.07
3812.72
3700.36
3588.01
3475.65
3363.3
3250.95
3138.59
3026.24
2913.88
2801.53
2689.17
2576.82
2464.46
2352.11
2239.75
2127.39
2015.04
1902.68
1790.31
1677.94
1565.57
1453.18
1340.77
1228.34
1115.86
1003.29
890.583
777.915
665.287
551.791
439.265
329.836
190.552
52.7715
11148.5
10917
10901
10819.7
10697
10597.4
10503.4
10401.7
10296.7
10191.4
10085.2
9977.76
9869.2
9759.76
9649.62
9538.93
9427.79
9316.3
9204.55
9092.62
8980.55
8868.38
8756.14
8643.87
8531.56
8419.22
8306.89
8194.55
8082.2
7969.84
7857.48
7745.13
7632.77
7520.41
7408.06
7295.7
7183.35
7070.99
6958.64
6846.28
6733.93
6621.57
6509.22
6396.86
6284.51
6172.16
6059.8
5947.45
5835.09
5722.74
5610.38
5498.03
5385.68
5273.32
5160.97
5048.61
4936.26
4823.9
4711.55
4599.2
4486.84
4374.49
4262.13
4149.78
4037.43
3925.07
3812.72
3700.36
3588.01
3475.65
3363.3
3250.94
3138.59
3026.24
2913.88
2801.53
2689.17
2576.82
2464.46
2352.11
2239.75
2127.39
2015.03
1902.67
1790.3
1677.92
1565.53
1453.12
1340.67
1228.19
1115.64
1002.94
890.052
777.11
664.067
550.035
437.105
326.796
180.392
44.3717
11161.8
10928.5
10913
10831.9
10708.7
10608.6
10514.1
10411.6
10305.7
10199.2
10092
9983.54
9874.02
9763.73
9652.85
9541.51
9429.83
9317.9
9205.8
9093.58
8981.28
8868.93
8756.56
8644.17
8531.78
8419.39
8307.01
8194.64
8082.26
7969.88
7857.52
7745.15
7632.79
7520.42
7408.07
7295.71
7183.35
7070.99
6958.64
6846.28
6733.93
6621.57
6509.22
6396.86
6284.51
6172.16
6059.8
5947.45
5835.09
5722.74
5610.38
5498.03
5385.68
5273.32
5160.97
5048.61
4936.26
4823.9
4711.55
4599.2
4486.84
4374.49
4262.13
4149.78
4037.42
3925.07
3812.72
3700.36
3588.01
3475.65
3363.3
3250.94
3138.59
3026.24
2913.88
2801.53
2689.17
2576.82
2464.46
2352.1
2239.75
2127.39
2015.02
1902.65
1790.28
1677.89
1565.49
1453.06
1340.58
1228.05
1115.43
1002.62
889.559
776.361
662.929
548.392
435.081
323.928
171.065
36.6684
11172.6
10938
10923
10842.1
10718.5
10618.3
10523.4
10420.3
10313.5
10206.1
10098
9988.63
9878.28
9767.23
9655.69
9543.79
9431.64
9319.32
9206.9
9094.42
8981.92
8869.42
8756.92
8644.45
8531.98
8419.54
8307.12
8194.72
8082.31
7969.92
7857.54
7745.17
7632.8
7520.43
7408.07
7295.71
7183.35
7071
6958.64
6846.28
6733.93
6621.57
6509.22
6396.86
6284.51
6172.16
6059.8
5947.45
5835.09
5722.74
5610.38
5498.03
5385.68
5273.32
5160.97
5048.61
4936.26
4823.9
4711.55
4599.2
4486.84
4374.49
4262.13
4149.78
4037.42
3925.07
3812.72
3700.36
3588.01
3475.65
3363.3
3250.94
3138.59
3026.24
2913.88
2801.53
2689.17
2576.82
2464.46
2352.1
2239.74
2127.38
2015.02
1902.65
1790.27
1677.87
1565.46
1453.01
1340.51
1227.93
1115.24
1002.34
889.121
775.695
661.911
546.921
433.267
321.353
162.889
29.919
11181
10945.6
10930.9
10850.3
10726.5
10626.1
10531
10427.4
10319.9
10211.9
10103
9992.89
9881.84
9770.17
9658.07
9545.7
9433.15
9320.5
9207.82
9095.13
8982.46
8869.83
8757.23
8644.67
8532.15
8419.66
8307.21
8194.78
8082.36
7969.96
7857.57
7745.19
7632.81
7520.44
7408.08
7295.72
7183.36
7071
6958.64
6846.29
6733.93
6621.57
6509.22
6396.86
6284.51
6172.16
6059.8
5947.45
5835.09
5722.74
5610.38
5498.03
5385.68
5273.32
5160.97
5048.61
4936.26
4823.9
4711.55
4599.2
4486.84
4374.49
4262.13
4149.78
4037.42
3925.07
3812.72
3700.36
3588.01
3475.65
3363.3
3250.94
3138.59
3026.24
2913.88
2801.53
2689.17
2576.81
2464.46
2352.1
2239.74
2127.38
2015.01
1902.64
1790.25
1677.85
1565.43
1452.96
1340.44
1227.83
1115.09
1002.09
888.753
775.133
661.05
545.676
431.731
319.175
156.117
24.3288
11187.1
10951.2
10936.7
10856.3
10732.5
10632.1
10536.9
10432.9
10324.9
10216.3
10106.9
9996.19
9884.61
9772.45
9659.93
9547.19
9434.33
9321.43
9208.53
9095.68
8982.88
8870.14
8757.47
8644.85
8532.28
8419.76
8307.28
8194.83
8082.4
7969.98
7857.59
7745.2
7632.82
7520.45
7408.08
7295.72
7183.36
7071
6958.64
6846.29
6733.93
6621.57
6509.22
6396.87
6284.51
6172.16
6059.8
5947.45
5835.09
5722.74
5610.38
5498.03
5385.68
5273.32
5160.97
5048.61
4936.26
4823.9
4711.55
4599.2
4486.84
4374.49
4262.13
4149.78
4037.42
3925.07
3812.72
3700.36
3588.01
3475.65
3363.3
3250.94
3138.59
3026.24
2913.88
2801.53
2689.17
2576.81
2464.46
2352.1
2239.74
2127.37
2015.01
1902.63
1790.24
1677.84
1565.41
1452.93
1340.39
1227.75
1114.97
1001.91
888.465
774.695
660.377
544.701
430.531
317.477
150.923
20.0411
11191
10954.9
10940.6
10860.3
10736.5
10636.1
10540.8
10436.6
10328.3
10219.4
10109.5
9998.45
9886.5
9774
9661.19
9548.2
9435.13
9322.06
9209.02
9096.05
8983.17
8870.36
8757.63
8644.97
8532.37
8419.83
8307.33
8194.86
8082.42
7970
7857.6
7745.21
7632.83
7520.45
7408.09
7295.72
7183.36
7071
6958.64
6846.29
6733.93
6621.57
6509.22
6396.87
6284.51
6172.16
6059.8
5947.45
5835.09
5722.74
5610.38
5498.03
5385.68
5273.32
5160.97
5048.61
4936.26
4823.9
4711.55
4599.2
4486.84
4374.49
4262.13
4149.78
4037.42
3925.07
3812.72
3700.36
3588.01
3475.65
3363.3
3250.94
3138.59
3026.24
2913.88
2801.53
2689.17
2576.81
2464.46
2352.1
2239.74
2127.37
2015
1902.63
1790.24
1677.83
1565.39
1452.91
1340.36
1227.7
1114.88
1001.78
888.268
774.394
659.914
544.031
429.709
316.315
147.418
17.1458
11193
10956.7
10942.4
10862.3
10738.5
10638.1
10542.8
10438.5
10330
10220.9
10110.8
9999.59
9887.45
9774.79
9661.83
9548.72
9435.54
9322.38
9209.27
9096.24
8983.31
8870.47
8757.71
8645.03
8532.42
8419.86
8307.35
8194.88
8082.43
7970.01
7857.6
7745.21
7632.83
7520.46
7408.09
7295.72
7183.36
7071
6958.64
6846.29
6733.93
6621.58
6509.22
6396.87
6284.51
6172.16
6059.8
5947.45
5835.09
5722.74
5610.38
5498.03
5385.68
5273.32
5160.97
5048.61
4936.26
4823.9
4711.55
4599.2
4486.84
4374.49
4262.13
4149.78
4037.42
3925.07
3812.72
3700.36
3588.01
3475.65
3363.3
3250.94
3138.59
3026.23
2913.88
2801.52
2689.17
2576.81
2464.46
2352.1
2239.74
2127.37
2015
1902.63
1790.24
1677.83
1565.39
1452.9
1340.34
1227.67
1114.84
1001.71
888.168
774.242
659.679
543.691
429.291
315.722
145.66
15.6902
11193
10956.7
10942.4
10862.3
10738.5
10638.1
10542.8
10438.5
10330
10220.9
10110.8
9999.59
9887.45
9774.79
9661.84
9548.72
9435.54
9322.38
9209.27
9096.25
8983.31
8870.47
8757.71
8645.03
8532.42
8419.86
8307.35
8194.88
8082.43
7970.01
7857.6
7745.21
7632.83
7520.46
7408.09
7295.72
7183.36
7071
6958.64
6846.29
6733.93
6621.57
6509.22
6396.86
6284.51
6172.16
6059.8
5947.45
5835.09
5722.74
5610.38
5498.03
5385.68
5273.32
5160.97
5048.61
4936.26
4823.9
4711.55
4599.2
4486.84
4374.49
4262.13
4149.78
4037.42
3925.07
3812.72
3700.36
3588.01
3475.65
3363.3
3250.94
3138.59
3026.23
2913.88
2801.52
2689.17
2576.81
2464.46
2352.1
2239.74
2127.37
2015
1902.63
1790.24
1677.83
1565.39
1452.9
1340.34
1227.67
1114.84
1001.71
888.168
774.242
659.679
543.691
429.291
315.722
145.66
15.6901
11191
10954.9
10940.5
10860.3
10736.5
10636.1
10540.8
10436.6
10328.3
10219.4
10109.5
9998.45
9886.5
9774.01
9661.2
9548.21
9435.14
9322.06
9209.02
9096.06
8983.17
8870.36
8757.63
8644.97
8532.37
8419.83
8307.33
8194.86
8082.42
7970
7857.6
7745.21
7632.83
7520.45
7408.09
7295.72
7183.36
7071
6958.64
6846.29
6733.93
6621.57
6509.22
6396.86
6284.51
6172.16
6059.8
5947.45
5835.09
5722.74
5610.38
5498.03
5385.68
5273.32
5160.97
5048.61
4936.26
4823.9
4711.55
4599.2
4486.84
4374.49
4262.13
4149.78
4037.42
3925.07
3812.72
3700.36
3588.01
3475.65
3363.3
3250.94
3138.59
3026.23
2913.88
2801.52
2689.17
2576.81
2464.46
2352.1
2239.74
2127.37
2015
1902.63
1790.24
1677.83
1565.39
1452.91
1340.36
1227.7
1114.88
1001.78
888.268
774.394
659.914
544.031
429.709
316.314
147.418
17.1457
11187.1
10951.2
10936.7
10856.3
10732.5
10632.1
10536.9
10432.9
10324.9
10216.3
10106.9
9996.2
9884.61
9772.45
9659.93
9547.19
9434.33
9321.43
9208.54
9095.68
8982.88
8870.15
8757.47
8644.85
8532.29
8419.76
8307.28
8194.83
8082.4
7969.98
7857.59
7745.2
7632.82
7520.45
7408.08
7295.72
7183.36
7071
6958.64
6846.29
6733.93
6621.57
6509.22
6396.86
6284.51
6172.16
6059.8
5947.45
5835.09
5722.74
5610.38
5498.03
5385.68
5273.32
5160.97
5048.61
4936.26
4823.9
4711.55
4599.2
4486.84
4374.49
4262.13
4149.78
4037.42
3925.07
3812.72
3700.36
3588.01
3475.65
3363.3
3250.94
3138.59
3026.24
2913.88
2801.53
2689.17
2576.81
2464.46
2352.1
2239.74
2127.37
2015.01
1902.63
1790.24
1677.84
1565.41
1452.93
1340.39
1227.75
1114.97
1001.91
888.465
774.695
660.377
544.701
430.531
317.477
150.923
20.041
11181
10945.6
10930.9
10850.2
10726.5
10626.1
10531
10427.4
10319.9
10211.9
10103
9992.9
9881.85
9770.18
9658.08
9545.71
9433.16
9320.51
9207.83
9095.14
8982.47
8869.83
8757.24
8644.68
8532.16
8419.67
8307.21
8194.78
8082.36
7969.96
7857.57
7745.19
7632.81
7520.44
7408.08
7295.72
7183.36
7071
6958.64
6846.28
6733.93
6621.57
6509.22
6396.86
6284.51
6172.16
6059.8
5947.45
5835.09
5722.74
5610.38
5498.03
5385.68
5273.32
5160.97
5048.61
4936.26
4823.9
4711.55
4599.2
4486.84
4374.49
4262.13
4149.78
4037.42
3925.07
3812.72
3700.36
3588.01
3475.65
3363.3
3250.94
3138.59
3026.24
2913.88
2801.53
2689.17
2576.81
2464.46
2352.1
2239.74
2127.38
2015.01
1902.64
1790.25
1677.85
1565.43
1452.96
1340.44
1227.83
1115.09
1002.09
888.752
775.133
661.05
545.676
431.731
319.175
156.116
24.3285
11172.6
10938
10923
10842.1
10718.5
10618.2
10523.4
10420.3
10313.5
10206.1
10098
9988.64
9878.29
9767.24
9655.7
9543.8
9431.65
9319.33
9206.91
9094.43
8981.93
8869.43
8756.93
8644.45
8531.99
8419.55
8307.12
8194.71
8082.31
7969.92
7857.54
7745.17
7632.8
7520.43
7408.07
7295.71
7183.35
7071
6958.64
6846.28
6733.93
6621.57
6509.22
6396.86
6284.51
6172.16
6059.8
5947.45
5835.09
5722.74
5610.38
5498.03
5385.68
5273.32
5160.97
5048.61
4936.26
4823.9
4711.55
4599.2
4486.84
4374.49
4262.13
4149.78
4037.42
3925.07
3812.72
3700.36
3588.01
3475.65
3363.3
3250.94
3138.59
3026.24
2913.88
2801.53
2689.17
2576.81
2464.46
2352.1
2239.74
2127.38
2015.02
1902.65
1790.27
1677.87
1565.46
1453.01
1340.51
1227.93
1115.24
1002.34
889.121
775.695
661.911
546.921
433.267
321.352
162.889
29.9187
11161.8
10928.5
10913
10831.9
10708.6
10608.6
10514.1
10411.6
10305.7
10199.2
10092
9983.55
9874.03
9763.74
9652.86
9541.53
9429.85
9317.92
9205.81
9093.59
8981.29
8868.94
8756.57
8644.18
8531.79
8419.4
8307.02
8194.64
8082.26
7969.89
7857.52
7745.15
7632.79
7520.42
7408.07
7295.71
7183.35
7070.99
6958.64
6846.28
6733.93
6621.57
6509.22
6396.86
6284.51
6172.16
6059.8
5947.45
5835.09
5722.74
5610.38
5498.03
5385.68
5273.32
5160.97
5048.61
4936.26
4823.9
4711.55
4599.2
4486.84
4374.49
4262.13
4149.78
4037.42
3925.07
3812.72
3700.36
3588.01
3475.65
3363.3
3250.94
3138.59
3026.24
2913.88
2801.53
2689.17
2576.82
2464.46
2352.1
2239.74
2127.38
2015.02
1902.65
1790.28
1677.89
1565.49
1453.06
1340.58
1228.05
1115.43
1002.62
889.559
776.361
662.928
548.392
435.08
323.928
171.065
36.668
11148.5
10916.9
10900.9
10819.7
10697
10597.3
10503.3
10401.7
10296.7
10191.4
10085.2
9977.78
9869.21
9759.78
9649.64
9538.95
9427.8
9316.31
9204.57
9092.63
8980.56
8868.39
8756.16
8643.88
8531.57
8419.24
8306.9
8194.55
8082.19
7969.84
7857.48
7745.13
7632.77
7520.41
7408.06
7295.7
7183.35
7070.99
6958.64
6846.28
6733.93
6621.57
6509.22
6396.86
6284.51
6172.16
6059.8
5947.45
5835.09
5722.74
5610.38
5498.03
5385.68
5273.32
5160.97
5048.61
4936.26
4823.9
4711.55
4599.2
4486.84
4374.49
4262.13
4149.78
4037.42
3925.07
3812.72
3700.36
3588.01
3475.65
3363.3
3250.94
3138.59
3026.24
2913.88
2801.53
2689.17
2576.82
2464.46
2352.1
2239.75
2127.39
2015.03
1902.66
1790.3
1677.92
1565.53
1453.11
1340.67
1228.19
1115.64
1002.94
890.052
777.109
664.067
550.034
437.105
326.796
180.391
44.3713
11132.6
10903.5
10886.9
10805.6
10683.8
10584.7
10491.4
10390.7
10286.9
10182.8
10077.8
9971.5
9863.97
9755.47
9646.15
9536.14
9425.58
9314.57
9203.21
9091.59
8979.77
8867.79
8755.71
8643.54
8531.32
8419.05
8306.76
8194.45
8082.13
7969.79
7857.45
7745.1
7632.75
7520.4
7408.05
7295.7
7183.34
7070.99
6958.63
6846.28
6733.93
6621.57
6509.22
6396.86
6284.51
6172.15
6059.8
5947.45
5835.09
5722.74
5610.38
5498.03
5385.68
5273.32
5160.97
5048.61
4936.26
4823.9
4711.55
4599.2
4486.84
4374.49
4262.13
4149.78
4037.42
3925.07
3812.72
3700.36
3588.01
3475.65
3363.3
3250.94
3138.59
3026.24
2913.88
2801.53
2689.17
2576.82
2464.46
2352.11
2239.75
2127.39
2015.04
1902.68
1790.31
1677.94
1565.57
1453.18
1340.77
1228.34
1115.86
1003.29
890.583
777.915
665.287
551.791
439.265
329.836
190.552
52.771
11114
10888.4
10870.9
10789.8
10669.3
10571.1
10478.5
10379
10276.6
10173.8
10070
9964.91
9858.48
9750.95
9642.48
9533.2
9423.25
9312.74
9201.79
9090.49
8978.93
8867.16
8755.23
8643.19
8531.06
8418.86
8306.62
8194.35
8082.05
7969.74
7857.41
7745.07
7632.73
7520.39
7408.04
7295.69
7183.34
7070.99
6958.63
6846.28
6733.93
6621.57
6509.22
6396.86
6284.51
6172.15
6059.8
5947.45
5835.09
5722.74
5610.38
5498.03
5385.68
5273.32
5160.97
5048.61
4936.26
4823.9
4711.55
4599.2
4486.84
4374.49
4262.13
4149.78
4037.42
3925.07
3812.72
3700.36
3588.01
3475.65
3363.3
3250.94
3138.59
3026.24
2913.88
2801.53
2689.17
2576.82
2464.46
2352.11
2239.75
2127.4
2015.04
1902.69
1790.33
1677.97
1565.61
1453.24
1340.87
1228.49
1116.1
1003.65
891.136
778.752
666.545
553.6
441.489
332.931
201.218
61.6056
11093.1
10871.9
10853.4
10772.8
10654
10556.8
10465.2
10367
10266
10164.6
10062.1
9958.24
9852.92
9746.38
9638.77
9530.22
9420.88
9310.88
9200.34
9089.38
8978.08
8866.51
8754.74
8642.82
8530.79
8418.66
8306.48
8194.24
8081.98
7969.68
7857.37
7745.05
7632.71
7520.37
7408.03
7295.68
7183.33
7070.98
6958.63
6846.28
6733.92
6621.57
6509.22
6396.86
6284.51
6172.15
6059.8
5947.45
5835.09
5722.74
5610.38
5498.03
5385.68
5273.32
5160.97
5048.61
4936.26
4823.9
4711.55
4599.2
4486.84
4374.49
4262.13
4149.78
4037.42
3925.07
3812.72
3700.36
3588.01
3475.65
3363.3
3250.94
3138.59
3026.24
2913.88
2801.53
2689.17
2576.82
2464.47
2352.11
2239.76
2127.4
2015.05
1902.7
1790.35
1678
1565.65
1453.31
1340.97
1228.64
1116.33
1004.01
891.691
779.589
667.796
555.399
443.706
335.982
212.141
70.6803
11070.1
10854.6
10834.9
10754.9
10638.5
10542.5
10451.9
10355.2
10255.6
10155.6
10054.4
9951.72
9847.49
9741.91
9635.13
9527.3
9418.55
9309.05
9198.92
9088.28
8977.23
8865.87
8754.26
8642.46
8530.52
8418.47
8306.33
8194.14
8081.9
7969.63
7857.33
7745.02
7632.69
7520.36
7408.02
7295.68
7183.33
7070.98
6958.63
6846.28
6733.92
6621.57
6509.22
6396.86
6284.51
6172.15
6059.8
5947.45
5835.09
5722.74
5610.38
5498.03
5385.67
5273.32
5160.97
5048.61
4936.26
4823.9
4711.55
4599.2
4486.84
4374.49
4262.13
4149.78
4037.42
3925.07
3812.72
3700.36
3588.01
3475.65
3363.3
3250.94
3138.59
3026.24
2913.88
2801.53
2689.17
2576.82
2464.47
2352.11
2239.76
2127.41
2015.06
1902.71
1790.37
1678.02
1565.69
1453.37
1341.06
1228.79
1116.56
1004.37
892.23
780.401
669.001
557.135
445.871
338.956
223.341
80.0115
11045.8
10837.3
10816.1
10737
10623.3
10528.6
10439.1
10343.9
10245.8
10147
10047.1
9945.55
9842.34
9737.67
9631.68
9524.52
9416.34
9307.3
9197.55
9087.22
8976.43
8865.26
8753.8
8642.12
8530.26
8418.28
8306.2
8194.04
8081.83
7969.58
7857.3
7744.99
7632.68
7520.35
7408.01
7295.67
7183.32
7070.98
6958.63
6846.27
6733.92
6621.57
6509.22
6396.86
6284.51
6172.15
6059.8
5947.45
5835.09
5722.74
5610.38
5498.03
5385.67
5273.32
5160.97
5048.61
4936.26
4823.9
4711.55
4599.2
4486.84
4374.49
4262.13
4149.78
4037.42
3925.07
3812.72
3700.36
3588.01
3475.65
3363.3
3250.94
3138.59
3026.24
2913.88
2801.53
2689.18
2576.82
2464.47
2352.12
2239.76
2127.41
2015.07
1902.72
1790.38
1678.05
1565.73
1453.43
1341.15
1228.93
1116.78
1004.7
892.736
781.163
670.121
558.757
447.94
341.878
235.181
89.9256
11021.3
10820.8
10797.8
10719.9
10609.1
10515.8
10427.3
10333.5
10236.8
10139.3
10040.5
9939.95
9837.67
9733.81
9628.53
9521.98
9414.31
9305.7
9196.3
9086.25
8975.68
8864.69
8753.37
8641.8
8530.03
8418.1
8306.07
8193.95
8081.76
7969.53
7857.26
7744.97
7632.66
7520.34
7408
7295.66
7183.32
7070.97
6958.62
6846.27
6733.92
6621.57
6509.22
6396.86
6284.51
6172.15
6059.8
5947.45
5835.09
5722.74
5610.38
5498.03
5385.67
5273.32
5160.97
5048.61
4936.26
4823.9
4711.55
4599.2
4486.84
4374.49
4262.13
4149.78
4037.42
3925.07
3812.72
3700.36
3588.01
3475.65
3363.3
3250.94
3138.59
3026.24
2913.88
2801.53
2689.18
2576.82
2464.47
2352.12
2239.77
2127.42
2015.07
1902.73
1790.4
1678.07
1565.76
1453.48
1341.24
1229.06
1116.97
1004.99
893.192
781.847
671.119
560.214
449.859
344.756
247.848
100.627
10997.9
10806.4
10781
10704.4
10596.8
10504.7
10417.1
10324.6
10229.2
10132.7
10034.8
9935.13
9833.64
9730.48
9625.8
9519.77
9412.54
9304.3
9195.2
9085.4
8975.03
8864.19
8753
8641.52
8529.82
8417.95
8305.95
8193.86
8081.7
7969.48
7857.23
7744.95
7632.64
7520.32
7408
7295.66
7183.32
7070.97
6958.62
6846.27
6733.92
6621.57
6509.21
6396.86
6284.51
6172.15
6059.8
5947.45
5835.09
5722.74
5610.38
5498.03
5385.67
5273.32
5160.97
5048.61
4936.26
4823.9
4711.55
4599.2
4486.84
4374.49
4262.13
4149.78
4037.42
3925.07
3812.72
3700.36
3588.01
3475.65
3363.3
3250.95
3138.59
3026.24
2913.88
2801.53
2689.18
2576.82
2464.47
2352.12
2239.77
2127.42
2015.08
1902.74
1790.41
1678.09
1565.79
1453.53
1341.31
1229.17
1117.14
1005.25
893.586
782.437
671.97
561.468
451.581
347.534
260.532
111.406
10977
10795.1
10766.9
10691.5
10586.9
10495.8
10408.9
10317.5
10223
10127.4
10030.3
9931.26
9830.39
9727.78
9623.59
9517.97
9411.1
9303.15
9194.3
9084.7
8974.48
8863.78
8752.68
8641.28
8529.64
8417.82
8305.86
8193.79
8081.65
7969.45
7857.2
7744.93
7632.63
7520.32
7407.99
7295.65
7183.31
7070.97
6958.62
6846.27
6733.92
6621.57
6509.21
6396.86
6284.51
6172.15
6059.8
5947.45
5835.09
5722.74
5610.38
5498.03
5385.67
5273.32
5160.97
5048.61
4936.26
4823.9
4711.55
4599.2
4486.84
4374.49
4262.13
4149.78
4037.42
3925.07
3812.72
3700.36
3588.01
3475.65
3363.3
3250.95
3138.59
3026.24
2913.88
2801.53
2689.18
2576.82
2464.47
2352.12
2239.77
2127.43
2015.08
1902.75
1790.42
1678.11
1565.82
1453.56
1341.37
1229.25
1117.27
1005.45
893.906
782.915
672.651
562.484
453.044
350.06
271.647
120.815
10960.4
10787.9
10756.4
10681.8
10580
10489.6
10403.2
10312.4
10218.7
10123.7
10027
9928.51
9828.07
9725.85
9621.99
9516.66
9410.05
9302.31
9193.63
9084.18
8974.08
8863.47
8752.45
8641.1
8529.51
8417.72
8305.79
8193.74
8081.61
7969.42
7857.18
7744.91
7632.62
7520.31
7407.98
7295.65
7183.31
7070.97
6958.62
6846.27
6733.92
6621.57
6509.21
6396.86
6284.51
6172.15
6059.8
5947.45
5835.09
5722.74
5610.38
5498.03
5385.67
5273.32
5160.97
5048.61
4936.26
4823.9
4711.55
4599.2
4486.84
4374.49
4262.13
4149.78
4037.42
3925.07
3812.72
3700.36
3588.01
3475.65
3363.3
3250.95
3138.59
3026.24
2913.88
2801.53
2689.18
2576.82
2464.47
2352.12
2239.77
2127.43
2015.09
1902.75
1790.43
1678.12
1565.84
1453.59
1341.41
1229.32
1117.37
1005.61
894.146
783.269
673.145
563.233
454.192
352.154
279.544
127.333
10949.2
10785.5
10749.9
10675.8
10576.3
10486.3
10399.9
10309.6
10216.4
10121.6
10025.2
9926.94
9826.73
9724.72
9621.05
9515.89
9409.41
9301.8
9193.23
9083.86
8973.83
8863.28
8752.3
8640.99
8529.42
8417.66
8305.74
8193.71
8081.59
7969.4
7857.17
7744.9
7632.61
7520.3
7407.98
7295.65
7183.31
7070.97
6958.62
6846.27
6733.92
6621.57
6509.21
6396.86
6284.51
6172.15
6059.8
5947.45
5835.09
5722.74
5610.38
5498.03
5385.67
5273.32
5160.97
5048.61
4936.26
4823.9
4711.55
4599.2
4486.84
4374.49
4262.13
4149.78
4037.42
3925.07
3812.72
3700.36
3588.01
3475.65
3363.3
3250.95
3138.59
3026.24
2913.88
2801.53
2689.18
2576.82
2464.47
2352.12
2239.77
2127.43
2015.09
1902.75
1790.43
1678.13
1565.85
1453.61
1341.44
1229.36
1117.43
1005.71
894.299
783.492
673.445
563.7
454.991
353.698
283.277
130.093
10944.3
10787.5
10747.7
10673.6