/*--------------------------------*- C++ -*----------------------------------*\
| =========                 |                                                 |
| \\      /  F ield         | foam-extend: Open Source CFD                    |
|  \\    /   O peration     | Version:     5.0                                |
|   \\  /    A nd           | Web:         http://www.foam-extend.org         |
|    \\/     M anipulation  |                                                 |
\*---------------------------------------------------------------------------*/
FoamFile
{
    version     2.0;
    format      ascii;
    class       volScalarField;
    location    "0.03";
    object      pd;
}
// * * * * * * * * * * * * * * * * * * * * * * * * * * * * * * * * * * * * * //

dimensions      [1 -1 -2 0 0 0 0];

internalField   nonuniform List<scalar> 
4000
(
10953.1
10799.3
10752.5
10678.5
10582
10491.2
10403.6
10312.9
10219.3
10124.2
10027.4
9928.8
9828.38
9726.13
9622.23
9516.91
9410.32
9302.62
9193.96
9084.51
8974.44
8863.85
8752.85
8641.52
8529.94
8418.16
8306.24
8194.21
8082.09
7969.9
7857.67
7745.4
7633.11
7520.8
7408.47
7296.14
7183.8
7071.46
6959.11
6846.76
6734.41
6622.06
6509.71
6397.35
6285
6172.65
6060.29
5947.94
5835.58
5723.23
5610.88
5498.52
5386.17
5273.81
5161.46
5049.1
4936.75
4824.4
4712.04
4599.69
4487.33
4374.98
4262.62
4150.27
4037.92
3925.56
3813.21
3700.85
3588.5
3476.14
3363.79
3251.44
3139.08
3026.73
2914.38
2802.02
2689.67
2577.32
2464.96
2352.61
2240.27
2127.92
2015.58
1903.24
1790.92
1678.61
1566.33
1454.09
1341.91
1229.83
1117.89
1006.14
894.713
783.85
673.662
563.881
455.717
356.268
281.119
126.636
10946.4
10793.4
10749.4
10675.3
10578.5
10488.3
10401.1
10310.7
10217.4
10122.5
10026
9927.56
9827.34
9725.25
9621.51
9516.33
9409.85
9302.24
9193.66
9084.28
8974.26
8863.71
8752.74
8641.44
8529.88
8418.12
8306.21
8194.19
8082.07
7969.89
7857.66
7745.39
7633.1
7520.79
7408.47
7296.14
7183.8
7071.46
6959.11
6846.76
6734.41
6622.06
6509.71
6397.35
6285
6172.65
6060.29
5947.94
5835.58
5723.23
5610.88
5498.52
5386.17
5273.81
5161.46
5049.1
4936.75
4824.4
4712.04
4599.69
4487.33
4374.98
4262.62
4150.27
4037.92
3925.56
3813.21
3700.85
3588.5
3476.14
3363.79
3251.44
3139.08
3026.73
2914.38
2802.02
2689.67
2577.32
2464.96
2352.61
2240.27
2127.92
2015.58
1903.25
1790.92
1678.62
1566.34
1454.1
1341.93
1229.86
1117.93
1006.21
894.822
784.017
673.928
564.246
455.98
355.823
281.924
127.791
10944.9
10788.1
10748.2
10674.2
10576.3
10486.5
10399.8
10309.5
10216.3
10121.6
10025.2
9926.96
9826.85
9724.86
9621.19
9516.08
9409.65
9302.09
9193.54
9084.19
8974.19
8863.67
8752.71
8641.41
8529.86
8418.1
8306.2
8194.18
8082.07
7969.88
7857.66
7745.39
7633.1
7520.79
7408.47
7296.14
7183.8
7071.46
6959.11
6846.76
6734.41
6622.06
6509.71
6397.35
6285
6172.65
6060.29
5947.94
5835.58
5723.23
5610.88
5498.52
5386.17
5273.81
5161.46
5049.1
4936.75
4824.4
4712.04
4599.69
4487.33
4374.98
4262.62
4150.27
4037.92
3925.56
3813.21
3700.85
3588.5
3476.14
3363.79
3251.44
3139.08
3026.73
2914.38
2802.02
2689.67
2577.32
2464.96
2352.61
2240.27
2127.92
2015.58
1903.25
1790.93
1678.62
1566.34
1454.11
1341.94
1229.87
1117.95
1006.23
894.852
784.069
674.033
564.365
455.911
355.188
283.754
129.985
10949.7
10786
10750.5
10676.4
10576.8
10487
10400.6
10310.2
10216.8
10122.1
10025.7
9927.35
9827.2
9725.17
9621.47
9516.32
9409.86
9302.26
9193.68
9084.3
8974.28
8863.74
8752.76
8641.46
8529.89
8418.12
8306.22
8194.2
8082.08
7969.89
7857.66
7745.39
7633.1
7520.79
7408.47
7296.14
7183.8
7071.46
6959.11
6846.76
6734.41
6622.06
6509.71
6397.35
6285
6172.65
6060.29
5947.94
5835.58
5723.23
5610.88
5498.52
5386.17
5273.81
5161.46
5049.1
4936.75
4824.4
4712.04
4599.69
4487.33
4374.98
4262.62
4150.27
4037.92
3925.56
3813.21
3700.85
3588.5
3476.14
3363.79
3251.44
3139.08
3026.73
2914.38
2802.02
2689.67
2577.32
2464.96
2352.61
2240.27
2127.92
2015.58
1903.25
1790.92
1678.62
1566.34
1454.1
1341.93
1229.85
1117.92
1006.2
894.79
783.983
673.936
564.191
455.482
354.189
283.769
130.585
10960.9
10788.5
10756.9
10682.3
10580.5
10490.3
10403.8
10313
10219.2
10124.1
10027.5
9928.92
9828.53
9726.3
9622.42
9517.1
9410.5
9302.77
9194.08
9084.62
8974.54
8863.93
8752.91
8641.57
8529.98
8418.19
8306.27
8194.23
8082.1
7969.91
7857.67
7745.4
7633.11
7520.8
7408.47
7296.14
7183.8
7071.46
6959.11
6846.76
6734.41
6622.06
6509.71
6397.35
6285
6172.65
6060.29
5947.94
5835.58
5723.23
5610.88
5498.52
5386.17
5273.81
5161.46
5049.1
4936.75
4824.4
4712.04
4599.69
4487.33
4374.98
4262.62
4150.27
4037.92
3925.56
3813.21
3700.85
3588.5
3476.14
3363.79
3251.44
3139.08
3026.73
2914.38
2802.02
2689.67
2577.32
2464.96
2352.61
2240.27
2127.92
2015.58
1903.24
1790.92
1678.61
1566.33
1454.08
1341.9
1229.81
1117.86
1006.1
894.637
783.76
673.636
563.724
454.683
352.645
280.036
127.825
10977.6
10795.6
10767.5
10692
10587.5
10496.5
10409.5
10318
10223.5
10127.8
10030.7
9931.67
9830.85
9728.24
9624.03
9518.41
9411.56
9303.62
9194.75
9085.15
8974.94
8864.24
8753.15
8641.75
8530.11
8418.28
8306.34
8194.29
8082.14
7969.94
7857.69
7745.42
7633.12
7520.81
7408.48
7296.14
7183.8
7071.46
6959.11
6846.76
6734.41
6622.06
6509.71
6397.35
6285
6172.65
6060.29
5947.94
5835.58
5723.23
5610.88
5498.52
5386.17
5273.81
5161.46
5049.1
4936.75
4824.4
4712.04
4599.69
4487.33
4374.98
4262.62
4150.27
4037.92
3925.56
3813.21
3700.85
3588.5
3476.14
3363.79
3251.44
3139.08
3026.73
2914.38
2802.02
2689.67
2577.32
2464.96
2352.61
2240.26
2127.92
2015.57
1903.24
1790.91
1678.6
1566.31
1454.06
1341.86
1229.75
1117.76
1005.95
894.397
783.406
673.142
562.975
453.535
350.551
272.139
121.306
10998.4
10806.9
10781.6
10705
10597.4
10505.3
10417.7
10325.1
10229.7
10133.1
10035.3
9935.55
9834.1
9730.93
9626.24
9520.21
9413
9304.76
9195.66
9085.85
8975.49
8864.66
8753.46
8641.98
8530.29
8418.41
8306.43
8194.36
8082.19
7969.97
7857.72
7745.44
7633.13
7520.81
7408.49
7296.15
7183.81
7071.46
6959.11
6846.76
6734.41
6622.06
6509.71
6397.35
6285
6172.65
6060.29
5947.94
5835.58
5723.23
5610.88
5498.52
5386.17
5273.81
5161.46
5049.1
4936.75
4824.4
4712.04
4599.69
4487.33
4374.98
4262.62
4150.27
4037.92
3925.56
3813.21
3700.85
3588.5
3476.14
3363.79
3251.44
3139.08
3026.73
2914.37
2802.02
2689.67
2577.31
2464.96
2352.61
2240.26
2127.91
2015.57
1903.23
1790.9
1678.58
1566.28
1454.02
1341.8
1229.66
1117.63
1005.74
894.077
782.928
672.461
561.959
452.072
348.025
261.023
111.897
11021.9
10821.3
10798.3
10720.5
10609.7
10516.4
10427.9
10334
10237.4
10139.8
10041
9940.38
9838.13
9734.27
9628.98
9522.43
9414.77
9306.17
9196.76
9086.71
8976.15
8865.16
8753.84
8642.27
8530.5
8418.57
8306.55
8194.45
8082.25
7970.02
7857.75
7745.46
7633.15
7520.83
7408.49
7296.15
7183.81
7071.46
6959.12
6846.76
6734.41
6622.06
6509.71
6397.35
6285
6172.65
6060.29
5947.94
5835.58
5723.23
5610.88
5498.52
5386.17
5273.81
5161.46
5049.1
4936.75
4824.4
4712.04
4599.69
4487.33
4374.98
4262.62
4150.27
4037.92
3925.56
3813.21
3700.85
3588.5
3476.14
3363.79
3251.44
3139.08
3026.73
2914.37
2802.02
2689.67
2577.31
2464.96
2352.61
2240.26
2127.91
2015.56
1903.22
1790.89
1678.56
1566.26
1453.97
1341.73
1229.55
1117.46
1005.48
893.683
782.338
671.61
560.705
450.35
345.247
248.339
101.118
11046.4
10837.8
10816.6
10737.6
10623.8
10529.2
10439.6
10344.4
10246.3
10147.5
10047.6
9945.98
9842.81
9738.13
9632.13
9524.97
9416.8
9307.77
9198.01
9087.68
8976.89
8865.73
8754.27
8642.59
8530.74
8418.74
8306.68
8194.54
8082.32
7970.07
7857.79
7745.48
7633.17
7520.84
7408.5
7296.16
7183.82
7071.47
6959.12
6846.77
6734.41
6622.06
6509.71
6397.35
6285
6172.65
6060.29
5947.94
5835.58
5723.23
5610.88
5498.52
5386.17
5273.81
5161.46
5049.1
4936.75
4824.4
4712.04
4599.69
4487.33
4374.98
4262.62
4150.27
4037.92
3925.56
3813.21
3700.85
3588.5
3476.14
3363.79
3251.44
3139.08
3026.73
2914.37
2802.02
2689.67
2577.31
2464.96
2352.61
2240.26
2127.91
2015.56
1903.21
1790.87
1678.54
1566.22
1453.92
1341.65
1229.42
1117.27
1005.19
893.227
781.654
670.612
559.248
448.431
342.369
235.673
90.4168
11070.6
10855.1
10835.4
10755.4
10639
10543.1
10452.4
10355.7
10256.2
10156
10054.9
9952.16
9847.96
9742.37
9635.59
9527.75
9419.02
9309.51
9199.38
9088.74
8977.7
8866.34
8754.73
8642.94
8531
8418.93
8306.82
8194.65
8082.39
7970.12
7857.82
7745.51
7633.18
7520.85
7408.51
7296.17
7183.82
7071.47
6959.12
6846.77
6734.41
6622.06
6509.71
6397.35
6285
6172.65
6060.29
5947.94
5835.58
5723.23
5610.88
5498.52
5386.17
5273.81
5161.46
5049.1
4936.75
4824.4
4712.04
4599.69
4487.33
4374.98
4262.62
4150.27
4037.92
3925.56
3813.21
3700.85
3588.5
3476.14
3363.79
3251.44
3139.08
3026.73
2914.37
2802.02
2689.67
2577.31
2464.96
2352.61
2240.25
2127.9
2015.55
1903.2
1790.86
1678.52
1566.18
1453.86
1341.55
1229.28
1117.05
1004.86
892.721
780.892
669.492
557.626
446.362
339.447
223.832
80.5026
11093.6
10872.4
10854
10773.3
10654.6
10557.4
10465.7
10367.6
10266.5
10165
10062.6
9958.69
9853.4
9746.85
9639.23
9530.68
9421.34
9311.35
9200.81
9089.85
8978.55
8866.98
8755.22
8643.3
8531.26
8419.13
8306.96
8194.75
8082.47
7970.17
7857.86
7745.54
7633.2
7520.86
7408.52
7296.17
7183.82
7071.47
6959.12
6846.77
6734.42
6622.06
6509.71
6397.35
6285
6172.65
6060.29
5947.94
5835.58
5723.23
5610.88
5498.52
5386.17
5273.81
5161.46
5049.1
4936.75
4824.4
4712.04
4599.69
4487.33
4374.98
4262.62
4150.27
4037.92
3925.56
3813.21
3700.85
3588.5
3476.14
3363.79
3251.44
3139.08
3026.73
2914.37
2802.02
2689.67
2577.31
2464.96
2352.6
2240.25
2127.9
2015.54
1903.19
1790.84
1678.49
1566.14
1453.8
1341.46
1229.13
1116.82
1004.51
892.182
780.08
668.287
555.89
444.197
336.473
212.633
71.1713
11114.5
10888.9
10871.4
10790.3
10669.9
10571.7
10479
10379.6
10277.1
10174.2
10070.5
9965.37
9858.96
9751.42
9642.94
9533.67
9423.71
9313.21
9202.26
9090.97
8979.4
8867.63
8755.7
8643.66
8531.53
8419.33
8307.11
8194.85
8082.54
7970.23
7857.9
7745.56
7633.22
7520.88
7408.53
7296.18
7183.83
7071.48
6959.12
6846.77
6734.42
6622.06
6509.71
6397.35
6285
6172.65
6060.29
5947.94
5835.58
5723.23
5610.88
5498.52
5386.17
5273.81
5161.46
5049.1
4936.75
4824.4
4712.04
4599.69
4487.33
4374.98
4262.62
4150.27
4037.92
3925.56
3813.21
3700.85
3588.5
3476.14
3363.79
3251.44
3139.08
3026.73
2914.37
2802.02
2689.66
2577.31
2464.96
2352.6
2240.25
2127.89
2015.53
1903.18
1790.82
1678.46
1566.1
1453.73
1341.36
1228.98
1116.59
1004.14
891.627
779.242
667.036
554.091
441.98
333.422
201.709
62.0966
11133.1
10904.1
10887.4
10806.1
10684.3
10585.3
10491.9
10391.2
10287.5
10183.3
10078.3
9971.97
9864.45
9755.94
9646.62
9536.61
9426.05
9315.04
9203.69
9092.07
8980.24
8868.27
8756.18
8644.02
8531.8
8419.52
8307.25
8194.95
8082.62
7970.28
7857.94
7745.59
7633.24
7520.89
7408.54
7296.19
7183.83
7071.48
6959.13
6846.77
6734.42
6622.06
6509.71
6397.35
6285
6172.65
6060.29
5947.94
5835.58
5723.23
5610.88
5498.52
5386.17
5273.81
5161.46
5049.1
4936.75
4824.4
4712.04
4599.69
4487.33
4374.98
4262.62
4150.27
4037.92
3925.56
3813.21
3700.85
3588.5
3476.14
3363.79
3251.44
3139.08
3026.73
2914.37
2802.02
2689.66
2577.31
2464.95
2352.6
2240.24
2127.89
2015.53
1903.17
1790.8
1678.43
1566.06
1453.67
1341.26
1228.83
1116.35
1003.78
891.074
778.406
665.777
552.281
439.756
330.327
191.043
53.262
11149
10917.5
10901.5
10820.2
10697.5
10597.9
10503.8
10402.2
10297.2
10191.9
10085.7
9978.25
9869.69
9760.25
9650.12
9539.42
9428.28
9316.79
9205.04
9093.11
8981.04
8868.87
8756.63
8644.36
8532.05
8419.71
8307.38
8195.04
8082.69
7970.33
7857.97
7745.62
7633.26
7520.9
7408.55
7296.19
7183.84
7071.48
6959.13
6846.77
6734.42
6622.06
6509.71
6397.35
6285
6172.65
6060.29
5947.94
5835.58
5723.23
5610.88
5498.52
5386.17
5273.81
5161.46
5049.1
4936.75
4824.4
4712.04
4599.69
4487.33
4374.98
4262.62
4150.27
4037.92
3925.56
3813.21
3700.85
3588.5
3476.14
3363.79
3251.44
3139.08
3026.73
2914.37
2802.02
2689.66
2577.31
2464.95
2352.6
2240.24
2127.88
2015.52
1903.16
1790.79
1678.41
1566.02
1453.61
1341.16
1228.68
1116.13
1003.43
890.542
777.6
664.558
550.525
437.596
327.286
180.882
44.8622
11162.3
10929
10913.5
10832.4
10709.2
10609.1
10514.6
10412.1
10306.2
10199.7
10092.5
9984.03
9874.51
9764.22
9653.34
9542
9430.32
9318.39
9206.29
9094.07
8981.77
8869.42
8757.05
8644.66
8532.27
8419.88
8307.5
8195.13
8082.75
7970.38
7858.01
7745.64
7633.28
7520.92
7408.56
7296.2
7183.84
7071.48
6959.13
6846.77
6734.42
6622.06
6509.71
6397.36
6285
6172.65
6060.29
5947.94
5835.58
5723.23
5610.88
5498.52
5386.17
5273.81
5161.46
5049.1
4936.75
4824.4
4712.04
4599.69
4487.33
4374.98
4262.62
4150.27
4037.92
3925.56
3813.21
3700.85
3588.5
3476.14
3363.79
3251.44
3139.08
3026.73
2914.37
2802.02
2689.66
2577.31
2464.95
2352.59
2240.24
2127.88
2015.51
1903.15
1790.77
1678.38
1565.98
1453.55
1341.08
1228.54
1115.92
1003.11
890.05
776.852
663.419
548.882
435.571
324.418
171.556
37.1589
11173.1
10938.5
10923.5
10842.6
10719
10618.8
10523.9
10420.8
10314
10206.6
10098.5
9989.12
9878.77
9767.72
9656.18
9544.28
9432.13
9319.81
9207.39
9094.91
8982.41
8869.91
8757.41
8644.94
8532.47
8420.03
8307.61
8195.21
8082.81
7970.42
7858.03
7745.66
7633.29
7520.93
7408.56
7296.2
7183.84
7071.49
6959.13
6846.77
6734.42
6622.06
6509.71
6397.36
6285
6172.65
6060.29
5947.94
5835.58
5723.23
5610.87
5498.52
5386.17
5273.81
5161.46
5049.1
4936.75
4824.4
4712.04
4599.69
4487.33
4374.98
4262.62
4150.27
4037.92
3925.56
3813.21
3700.85
3588.5
3476.14
3363.79
3251.44
3139.08
3026.73
2914.37
2802.02
2689.66
2577.31
2464.95
2352.59
2240.23
2127.87
2015.51
1903.14
1790.76
1678.36
1565.95
1453.5
1341
1228.42
1115.73
1002.83
889.612
776.185
662.402
547.412
433.757
321.843
163.38
30.4095
11181.5
10946.1
10931.4
10850.7
10727
10626.6
10531.5
10427.9
10320.4
10212.4
10103.5
9993.38
9882.33
9770.66
9658.57
9546.19
9433.64
9320.99
9208.31
9095.62
8982.95
8870.32
8757.72
8645.16
8532.64
8420.15
8307.7
8195.27
8082.85
7970.45
7858.06
7745.68
7633.3
7520.93
7408.57
7296.21
7183.85
7071.49
6959.13
6846.78
6734.42
6622.07
6509.71
6397.36
6285
6172.65
6060.29
5947.94
5835.58
5723.23
5610.87
5498.52
5386.17
5273.81
5161.46
5049.1
4936.75
4824.4
4712.04
4599.69
4487.33
4374.98
4262.62
4150.27
4037.92
3925.56
3813.21
3700.85
3588.5
3476.14
3363.79
3251.44
3139.08
3026.73
2914.37
2802.02
2689.66
2577.3
2464.95
2352.59
2240.23
2127.87
2015.5
1903.13
1790.74
1678.34
1565.92
1453.46
1340.93
1228.32
1115.58
1002.59
889.243
775.624
661.541
546.166
432.222
319.666
156.607
24.8193
11187.6
10951.7
10937.2
10856.8
10733
10632.6
10537.4
10433.4
10325.4
10216.8
10107.4
9996.68
9885.1
9772.94
9660.42
9547.68
9434.82
9321.92
9209.02
9096.17
8983.37
8870.63
8757.96
8645.34
8532.77
8420.25
8307.77
8195.32
8082.89
7970.47
7858.08
7745.69
7633.31
7520.94
7408.57
7296.21
7183.85
7071.49
6959.13
6846.78
6734.42
6622.07
6509.71
6397.36
6285
6172.65
6060.29
5947.94
5835.58
5723.23
5610.87
5498.52
5386.17
5273.81
5161.46
5049.1
4936.75
4824.4
4712.04
4599.69
4487.33
4374.98
4262.62
4150.27
4037.92
3925.56
3813.21
3700.85
3588.5
3476.14
3363.79
3251.43
3139.08
3026.73
2914.37
2802.02
2689.66
2577.3
2464.95
2352.59
2240.23
2127.87
2015.5
1903.12
1790.74
1678.33
1565.9
1453.42
1340.88
1228.24
1115.46
1002.4
888.956
775.186
660.867
545.191
431.022
317.967
151.414
20.5316
11191.5
10955.4
10941
10860.8
10737
10636.6
10541.3
10437.1
10328.8
10219.8
10110
9998.94
9886.99
9774.49
9661.68
9548.69
9435.62
9322.55
9209.51
9096.54
8983.66
8870.85
8758.12
8645.46
8532.86
8420.32
8307.82
8195.35
8082.91
7970.49
7858.09
7745.7
7633.32
7520.94
7408.58
7296.21
7183.85
7071.49
6959.13
6846.78
6734.42
6622.07
6509.71
6397.36
6285
6172.65
6060.29
5947.94
5835.58
5723.23
5610.87
5498.52
5386.17
5273.81
5161.46
5049.1
4936.75
4824.39
4712.04
4599.69
4487.33
4374.98
4262.62
4150.27
4037.92
3925.56
3813.21
3700.85
3588.5
3476.14
3363.79
3251.43
3139.08
3026.73
2914.37
2802.02
2689.66
2577.3
2464.95
2352.59
2240.23
2127.86
2015.49
1903.12
1790.73
1678.32
1565.88
1453.4
1340.85
1228.19
1115.37
1002.27
888.759
774.885
660.405
544.522
430.199
316.805
147.908
17.6363
11193.5
10957.2
10942.9
10862.8
10739
10638.6
10543.2
10439
10330.5
10221.4
10111.3
10000.1
9887.94
9775.28
9662.32
9549.21
9436.03
9322.87
9209.76
9096.74
8983.8
8870.96
8758.2
8645.52
8532.91
8420.35
8307.84
8195.37
8082.92
7970.5
7858.1
7745.7
7633.32
7520.95
7408.58
7296.21
7183.85
7071.49
6959.13
6846.78
6734.42
6622.07
6509.71
6397.36
6285
6172.65
6060.29
5947.94
5835.58
5723.23
5610.87
5498.52
5386.17
5273.81
5161.46
5049.1
4936.75
4824.39
4712.04
4599.69
4487.33
4374.98
4262.62
4150.27
4037.92
3925.56
3813.21
3700.85
3588.5
3476.14
3363.79
3251.43
3139.08
3026.73
2914.37
2802.02
2689.66
2577.3
2464.95
2352.59
2240.23
2127.86
2015.49
1903.12
1790.73
1678.32
1565.88
1453.39
1340.83
1228.16
1115.33
1002.2
888.659
774.732
660.17
544.181
429.782
316.212
146.151
16.1807
11193.5
10957.2
10942.9
10862.8
10739
10638.6
10543.2
10439
10330.5
10221.4
10111.3
10000.1
9887.95
9775.28
9662.33
9549.21
9436.03
9322.87
9209.76
9096.74
8983.8
8870.96
8758.2
8645.52
8532.91
8420.35
8307.84
8195.37
8082.92
7970.5
7858.1
7745.7
7633.32
7520.95
7408.58
7296.21
7183.85
7071.49
6959.13
6846.78
6734.42
6622.07
6509.71
6397.36
6285
6172.65
6060.29
5947.94
5835.58
5723.23
5610.87
5498.52
5386.17
5273.81
5161.46
5049.1
4936.75
4824.39
4712.04
4599.69
4487.33
4374.98
4262.62
4150.27
4037.92
3925.56
3813.21
3700.85
3588.5
3476.14
3363.79
3251.43
3139.08
3026.73
2914.37
2802.02
2689.66
2577.3
2464.95
2352.59
2240.23
2127.86
2015.49
1903.12
1790.73
1678.32
1565.88
1453.39
1340.83
1228.16
1115.33
1002.2
888.659
774.732
660.17
544.181
429.782
316.212
146.151
16.1806
11191.5
10955.4
10941
10860.8
10737
10636.6
10541.3
10437.1
10328.8
10219.8
10110
9998.94
9886.99
9774.5
9661.69
9548.7
9435.63
9322.55
9209.52
9096.55
8983.66
8870.85
8758.12
8645.46
8532.87
8420.32
8307.82
8195.35
8082.91
7970.49
7858.09
7745.7
7633.32
7520.94
7408.58
7296.21
7183.85
7071.49
6959.13
6846.78
6734.42
6622.07
6509.71
6397.36
6285
6172.65
6060.29
5947.94
5835.58
5723.23
5610.87
5498.52
5386.17
5273.81
5161.46
5049.1
4936.75
4824.39
4712.04
4599.69
4487.33
4374.98
4262.62
4150.27
4037.92
3925.56
3813.21
3700.85
3588.5
3476.14
3363.79
3251.43
3139.08
3026.73
2914.37
2802.02
2689.66
2577.3
2464.95
2352.59
2240.23
2127.86
2015.49
1903.12
1790.73
1678.32
1565.88
1453.4
1340.85
1228.19
1115.37
1002.27
888.759
774.885
660.405
544.522
430.199
316.805
147.908
17.6362
11187.6
10951.7
10937.2
10856.8
10733
10632.6
10537.4
10433.4
10325.4
10216.8
10107.4
9996.69
9885.1
9772.94
9660.42
9547.68
9434.83
9321.92
9209.03
9096.17
8983.37
8870.64
8757.96
8645.34
8532.78
8420.26
8307.77
8195.32
8082.89
7970.47
7858.08
7745.69
7633.31
7520.94
7408.57
7296.21
7183.85
7071.49
6959.13
6846.78
6734.42
6622.07
6509.71
6397.36
6285
6172.65
6060.29
5947.94
5835.58
5723.23
5610.87
5498.52
5386.17
5273.81
5161.46
5049.1
4936.75
4824.39
4712.04
4599.69
4487.33
4374.98
4262.62
4150.27
4037.92
3925.56
3813.21
3700.85
3588.5
3476.14
3363.79
3251.43
3139.08
3026.73
2914.37
2802.02
2689.66
2577.3
2464.95
2352.59
2240.23
2127.87
2015.5
1903.12
1790.74
1678.33
1565.9
1453.42
1340.88
1228.24
1115.46
1002.4
888.956
775.185
660.867
545.191
431.022
317.967
151.413
20.5315
11181.5
10946.1
10931.4
10850.7
10727
10626.6
10531.5
10427.9
10320.4
10212.4
10103.5
9993.39
9882.34
9770.67
9658.57
9546.2
9433.65
9321
9208.32
9095.63
8982.96
8870.32
8757.73
8645.17
8532.65
8420.16
8307.7
8195.27
8082.85
7970.45
7858.06
7745.68
7633.3
7520.93
7408.57
7296.21
7183.85
7071.49
6959.13
6846.78
6734.42
6622.06
6509.71
6397.36
6285
6172.65
6060.29
5947.94
5835.58
5723.23
5610.87
5498.52
5386.17
5273.81
5161.46
5049.1
4936.75
4824.39
4712.04
4599.69
4487.33
4374.98
4262.62
4150.27
4037.91
3925.56
3813.21
3700.85
3588.5
3476.14
3363.79
3251.43
3139.08
3026.73
2914.37
2802.02
2689.66
2577.3
2464.95
2352.59
2240.23
2127.87
2015.5
1903.13
1790.74
1678.34
1565.92
1453.46
1340.93
1228.32
1115.58
1002.59
889.243
775.624
661.541
546.166
432.222
319.665
156.607
24.819
11173.1
10938.5
10923.5
10842.6
10719
10618.7
10523.9
10420.8
10313.9
10206.6
10098.5
9989.13
9878.78
9767.73
9656.19
9544.29
9432.14
9319.82
9207.4
9094.92
8982.42
8869.92
8757.42
8644.94
8532.48
8420.04
8307.61
8195.2
8082.8
7970.42
7858.03
7745.66
7633.29
7520.93
7408.56
7296.2
7183.84
7071.49
6959.13
6846.77
6734.42
6622.06
6509.71
6397.35
6285
6172.65
6060.29
5947.94
5835.58
5723.23
5610.87
5498.52
5386.17
5273.81
5161.46
5049.1
4936.75
4824.39
4712.04
4599.69
4487.33
4374.98
4262.62
4150.27
4037.91
3925.56
3813.21
3700.85
3588.5
3476.14
3363.79
3251.43
3139.08
3026.73
2914.37
2802.02
2689.66
2577.31
2464.95
2352.59
2240.23
2127.87
2015.51
1903.14
1790.76
1678.36
1565.95
1453.5
1341
1228.42
1115.73
1002.83
889.611
776.185
662.401
547.411
433.757
321.843
163.379
30.4092
11162.3
10929
10913.5
10832.4
10709.1
10609.1
10514.6
10412.1
10306.1
10199.7
10092.5
9984.04
9874.52
9764.23
9653.35
9542.02
9430.34
9318.41
9206.3
9094.08
8981.78
8869.43
8757.06
8644.67
8532.28
8419.89
8307.51
8195.13
8082.75
7970.38
7858.01
7745.64
7633.28
7520.92
7408.56
7296.2
7183.84
7071.48
6959.13
6846.77
6734.42
6622.06
6509.71
6397.35
6285
6172.65
6060.29
5947.94
5835.58
5723.23
5610.87
5498.52
5386.17
5273.81
5161.46
5049.1
4936.75
4824.39
4712.04
4599.69
4487.33
4374.98
4262.62
4150.27
4037.91
3925.56
3813.21
3700.85
3588.5
3476.14
3363.79
3251.43
3139.08
3026.73
2914.37
2802.02
2689.66
2577.31
2464.95
2352.59
2240.24
2127.88
2015.51
1903.14
1790.77
1678.38
1565.98
1453.55
1341.08
1228.54
1115.92
1003.11
890.049
776.851
663.419
548.882
435.571
324.418
171.555
37.1585
11149
10917.4
10901.4
10820.2
10697.5
10597.8
10503.8
10402.2
10297.2
10191.9
10085.7
9978.27
9869.7
9760.27
9650.13
9539.44
9428.29
9316.8
9205.06
9093.12
8981.05
8868.88
8756.65
8644.37
8532.06
8419.73
8307.39
8195.04
8082.69
7970.33
7857.97
7745.62
7633.26
7520.9
7408.55
7296.19
7183.84
7071.48
6959.13
6846.77
6734.42
6622.06
6509.71
6397.35
6285
6172.65
6060.29
5947.94
5835.58
5723.23
5610.87
5498.52
5386.17
5273.81
5161.46
5049.1
4936.75
4824.39
4712.04
4599.69
4487.33
4374.98
4262.62
4150.27
4037.91
3925.56
3813.21
3700.85
3588.5
3476.14
3363.79
3251.43
3139.08
3026.73
2914.37
2802.02
2689.66
2577.31
2464.95
2352.6
2240.24
2127.88
2015.52
1903.16
1790.79
1678.41
1566.02
1453.61
1341.16
1228.68
1116.13
1003.43
890.542
777.6
664.557
550.525
437.595
327.286
180.882
44.8618
11133
10904
10887.4
10806.1
10684.3
10585.2
10491.8
10391.2
10287.4
10183.3
10078.3
9971.99
9864.46
9755.96
9646.64
9536.63
9426.07
9315.06
9203.7
9092.08
8980.26
8868.28
8756.2
8644.03
8531.81
8419.54
8307.25
8194.94
8082.62
7970.28
7857.94
7745.59
7633.24
7520.89
7408.54
7296.19
7183.83
7071.48
6959.12
6846.77
6734.42
6622.06
6509.71
6397.35
6285
6172.65
6060.29
5947.94
5835.58
5723.23
5610.87
5498.52
5386.17
5273.81
5161.46
5049.1
4936.75
4824.39
4712.04
4599.69
4487.33
4374.98
4262.62
4150.27
4037.91
3925.56
3813.21
3700.85
3588.5
3476.14
3363.79
3251.43
3139.08
3026.73
2914.37
2802.02
2689.66
2577.31
2464.95
2352.6
2240.24
2127.88
2015.53
1903.17
1790.8
1678.43
1566.06
1453.67
1341.26
1228.83
1116.35
1003.78
891.074
778.406
665.777
552.281
439.756
330.326
191.042
53.2615
11114.5
10888.9
10871.4
10790.3
10669.8
10571.6
10479
10379.5
10277.1
10174.3
10070.5
9965.4
9858.97
9751.44
9642.97
9533.69
9423.74
9313.23
9202.28
9090.98
8979.42
8867.65
8755.72
8643.68
8531.55
8419.35
8307.11
8194.84
8082.54
7970.23
7857.9
7745.57
7633.22
7520.88
7408.53
7296.18
7183.83
7071.48
6959.12
6846.77
6734.42
6622.06
6509.71
6397.35
6285
6172.65
6060.29
5947.94
5835.58
5723.23
5610.87
5498.52
5386.17
5273.81
5161.46
5049.1
4936.75
4824.39
4712.04
4599.69
4487.33
4374.98
4262.62
4150.27
4037.91
3925.56
3813.21
3700.85
3588.5
3476.14
3363.79
3251.44
3139.08
3026.73
2914.37
2802.02
2689.66
2577.31
2464.95
2352.6
2240.25
2127.89
2015.53
1903.18
1790.82
1678.46
1566.1
1453.73
1341.36
1228.98
1116.59
1004.14
891.626
779.242
667.035
554.09
441.979
333.421
201.708
62.0961
11093.5
10872.4
10853.9
10773.2
10654.5
10557.3
10465.7
10367.5
10266.5
10165.1
10062.6
9958.73
9853.41
9746.87
9639.26
9530.71
9421.37
9311.37
9200.83
9089.87
8978.57
8867
8755.24
8643.31
8531.28
8419.15
8306.97
8194.73
8082.47
7970.17
7857.86
7745.54
7633.2
7520.86
7408.52
7296.17
7183.82
7071.47
6959.12
6846.77
6734.41
6622.06
6509.71
6397.35
6285
6172.64
6060.29
5947.94
5835.58
5723.23
5610.87
5498.52
5386.17
5273.81
5161.46
5049.1
4936.75
4824.39
4712.04
4599.69
4487.33
4374.98
4262.62
4150.27
4037.91
3925.56
3813.21
3700.85
3588.5
3476.14
3363.79
3251.44
3139.08
3026.73
2914.37
2802.02
2689.66
2577.31
2464.96
2352.6
2240.25
2127.9
2015.54
1903.19
1790.84
1678.49
1566.14
1453.8
1341.46
1229.13
1116.82
1004.5
892.181
780.08
668.287
555.889
444.196
336.472
212.632
71.1708
11070.6
10855.1
10835.4
10755.4
10638.9
10543
10452.4
10355.7
10256.1
10156.1
10054.9
9952.21
9847.98
9742.4
9635.62
9527.79
9419.04
9309.54
9199.41
9088.77
8977.72
8866.36
8754.75
8642.96
8531.01
8418.96
8306.83
8194.63
8082.39
7970.12
7857.82
7745.51
7633.19
7520.85
7408.51
7296.17
7183.82
7071.47
6959.12
6846.77
6734.41
6622.06
6509.71
6397.35
6285
6172.64
6060.29
5947.94
5835.58
5723.23
5610.87
5498.52
5386.17
5273.81
5161.46
5049.1
4936.75
4824.39
4712.04
4599.69
4487.33
4374.98
4262.62
4150.27
4037.91
3925.56
3813.21
3700.85
3588.5
3476.14
3363.79
3251.44
3139.08
3026.73
2914.37
2802.02
2689.67
2577.31
2464.96
2352.6
2240.25
2127.9
2015.55
1903.2
1790.86
1678.51
1566.18
1453.86
1341.55
1229.28
1117.05
1004.86
892.72
780.892
669.491
557.625
446.361
339.447
223.831
80.502
11046.3
10837.7
10816.5
10737.5
10623.8
10529.1
10439.6
10344.3
10246.3
10147.5
10047.6
9946.04
9842.83
9738.16
9632.17
9525.01
9416.83
9307.79
9198.04
9087.71
8976.92
8865.75
8754.29
8642.61
8530.76
8418.77
8306.69
8194.53
8082.32
7970.07
7857.79
7745.48
7633.17
7520.84
7408.5
7296.16
7183.81
7071.47
6959.12
6846.76
6734.41
6622.06
6509.71
6397.35
6285
6172.64
6060.29
5947.94
5835.58
5723.23
5610.87
5498.52
5386.17
5273.81
5161.46
5049.1
4936.75
4824.39
4712.04
4599.69
4487.33
4374.98
4262.62
4150.27
4037.91
3925.56
3813.21
3700.85
3588.5
3476.14
3363.79
3251.44
3139.08
3026.73
2914.37
2802.02
2689.67
2577.31
2464.96
2352.61
2240.26
2127.9
2015.56
1903.21
1790.87
1678.54
1566.22
1453.92
1341.65
1229.42
1117.27
1005.19
893.226
781.653
670.611
559.247
448.431
342.369
235.672
90.4161
11021.8
10821.3
10798.2
10720.4
10609.6
10516.3
10427.8
10334
10237.3
10139.8
10041
9940.44
9838.16
9734.31
9629.02
9522.47
9414.8
9306.19
9196.79
9086.74
8976.17
8865.18
8753.86
8642.29
8530.52
8418.59
8306.56
8194.44
8082.25
7970.02
7857.75
7745.46
7633.15
7520.83
7408.49
7296.15
7183.81
7071.46
6959.11
6846.76
6734.41
6622.06
6509.71
6397.35
6285
6172.64
6060.29
5947.94
5835.58
5723.23
5610.87
5498.52
5386.17
5273.81
5161.46
5049.1
4936.75
4824.39
4712.04
4599.69
4487.33
4374.98
4262.62
4150.27
4037.91
3925.56
3813.21
3700.85
3588.5
3476.14
3363.79
3251.44
3139.08
3026.73
2914.37
2802.02
2689.67
2577.31
2464.96
2352.61
2240.26
2127.91
2015.56
1903.22
1790.89
1678.56
1566.25
1453.97
1341.73
1229.55
1117.46
1005.48
893.682
782.338
671.609
560.704
450.35
345.246
248.338
101.117
10998.4
10806.8
10781.5
10704.9
10597.3
10505.2
10417.6
10325.1
10229.7
10133.2
10035.3
9935.62
9834.13
9730.97
9626.29
9520.26
9413.03
9304.79
9195.69
9085.89
8975.52
8864.68
8753.49
8642.01
8530.31
8418.44
8306.44
8194.35
8082.19
7969.98
7857.72
7745.44
7633.13
7520.81
7408.49
7296.15
7183.81
7071.46
6959.11
6846.76
6734.41
6622.06
6509.71
6397.35
6285
6172.64
6060.29
5947.94
5835.58
5723.23
5610.87
5498.52
5386.17
5273.81
5161.46
5049.1
4936.75
4824.39
4712.04
4599.69
4487.33
4374.98
4262.62
4150.27
4037.91
3925.56
3813.21
3700.85
3588.5
3476.14
3363.79
3251.44
3139.08
3026.73
2914.37
2802.02
2689.67
2577.31
2464.96
2352.61
2240.26
2127.91
2015.57
1903.23
1790.9
1678.58
1566.28
1454.02
1341.8
1229.66
1117.63
1005.74
894.076
782.927
672.46
561.958
452.072
348.024
261.022
111.896
10977.5
10795.6
10767.4
10692
10587.4
10496.3
10409.4
10317.9
10223.5
10127.9
10030.7
9931.76
9830.88
9728.28
9624.08
9518.46
9411.59
9303.64
9194.79
9085.19
8974.97
8864.27
8753.17
8641.77
8530.13
8418.31
8306.35
8194.28
8082.14
7969.94
7857.69
7745.42
7633.12
7520.81
7408.48
7296.14
7183.8
7071.46
6959.11
6846.76
6734.41
6622.06
6509.7
6397.35
6285
6172.64
6060.29
5947.94
5835.58
5723.23
5610.87
5498.52
5386.17
5273.81
5161.46
5049.1
4936.75
4824.39
4712.04
4599.69
4487.33
4374.98
4262.62
4150.27
4037.91
3925.56
3813.21
3700.85
3588.5
3476.14
3363.79
3251.44
3139.08
3026.73
2914.37
2802.02
2689.67
2577.31
2464.96
2352.61
2240.26
2127.92
2015.57
1903.24
1790.91
1678.6
1566.31
1454.05
1341.86
1229.74
1117.76
1005.94
894.397
783.405
673.141
562.974
453.534
350.55
272.138
121.305
10960.9
10788.4
10756.9
10682.3
10580.4
10490.1
10403.6
10312.9
10219.2
10124.1
10027.5
9929.01
9828.56
9726.34
9622.48
9517.16
9410.54
9302.8
9194.13
9084.67
8974.57
8863.96
8752.94
8641.59
8530
8418.21
8306.28
8194.23
8082.1
7969.91
7857.67
7745.4
7633.11
7520.8
7408.47
7296.14
7183.8
7071.46
6959.11
6846.76
6734.41
6622.06
6509.7
6397.35
6285
6172.64
6060.29
5947.94
5835.58
5723.23
5610.87
5498.52
5386.17
5273.81
5161.46
5049.1
4936.75
4824.39
4712.04
4599.69
4487.33
4374.98
4262.62
4150.27
4037.91
3925.56
3813.21
3700.85
3588.5
3476.14
3363.79
3251.44
3139.08
3026.73
2914.37
2802.02
2689.67
2577.32
2464.96
2352.61
2240.26
2127.92
2015.58
1903.24
1790.92
1678.61
1566.33
1454.08
1341.9
1229.81
1117.86
1006.1
894.636
783.759
673.636
563.723
454.682
352.644
280.035
127.824
10949.7
10786
10750.4
10676.3
10576.8
10486.8
10400.4
10310.1
10216.8
10122.1
10025.7
9927.43
9827.22
9725.21
9621.54
9516.38
9409.9
9302.29
9193.72
9084.35
8974.32
8863.77
8752.79
8641.48
8529.91
8418.15
8306.23
8194.2
8082.08
7969.89
7857.66
7745.4
7633.1
7520.79
7408.47
7296.14
7183.8
7071.46
6959.11
6846.76
6734.41
6622.06
6509.7
6397.35
6285
6172.64
6060.29
5947.94
5835.58
5723.23
5610.87
5498.52
5386.17
5273.81
5161.46
5049.1
4936.75
4824.39
4712.04
4599.69
4487.33
4374.98
4262.62
4150.27
4037.91
3925.56
3813.21
3700.85
3588.5
3476.14
3363.79
3251.44
3139.08
3026.73
2914.37
2802.02
2689.67
2577.32
2464.96
2352.61
2240.26
2127.92
2015.58
1903.24
1790.92
1678.62
1566.34
1454.1
1341.93
1229.85
1117.92
1006.2
894.79
783.983
673.935
564.191
455.481
354.188
283.768
130.584
10944.8
10788
10748.2
10674.1