/*--------------------------------*- C++ -*----------------------------------*\
| =========                 |                                                 |
| \\      /  F ield         | foam-extend: Open Source CFD                    |
|  \\    /   O peration     | Version:     5.0                                |
|   \\  /    A nd           | Web:         http://www.foam-extend.org         |
|    \\/     M anipulation  |                                                 |
\*---------------------------------------------------------------------------*/
FoamFile
{
    version     2.0;
    format      ascii;
    class       surfaceScalarField;
    location    "0.03";
    object      phi;
}
// * * * * * * * * * * * * * * * * * * * * * * * * * * * * * * * * * * * * * //

dimensions      [0 3 -1 0 0 0 0];

internalField   nonuniform List<scalar> 
7860
(
0.00570818
-0.000708179
0.0060853
-0.000377125
0.00792264
-0.00183734
0.00981966
-0.00189702
0.0111663
-0.00134666
0.0123009
-0.00113456
0.0133703
-0.00106942
0.0143328
-0.000962543
0.0151713
-0.000838439
0.0159019
-0.00073064
0.0165392
-0.000637265
0.0170886
-0.000549441
0.0175592
-0.000470543
0.0179557
-0.000396565
0.0182854
-0.00032967
0.018557
-0.000271604
0.018778
-0.00022103
0.0189557
-0.000177632
0.0190963
-0.000140648
0.0192065
-0.000110211
0.0192923
-8.57721e-05
0.0193585
-6.61721e-05
0.0194089
-5.04325e-05
0.019447
-3.80822e-05
0.0194755
-2.85103e-05
0.0194965
-2.10216e-05
0.0195122
-1.56874e-05
0.0195239
-1.17164e-05
0.0195323
-8.42484e-06
0.0195384
-6.04818e-06
0.0195427
-4.32181e-06
0.0195458
-3.09356e-06
0.019548
-2.21409e-06
0.0195496
-1.55352e-06
0.0195507
-1.08676e-06
0.0195514
-7.5783e-07
0.019552
-5.28342e-07
0.0195523
-3.67436e-07
0.0195526
-2.52984e-07
0.0195527
-1.73086e-07
0.0195529
-1.18517e-07
0.0195529
-8.10742e-08
0.019553
-5.45516e-08
0.019553
-3.60308e-08
0.0195531
-2.38626e-08
0.0195531
-1.6797e-08
0.0195531
-1.12227e-08
0.0195531
-6.95983e-09
0.0195531
-5.26568e-09
0.0195531
-3.99297e-09
0.0195531
-8.2536e-09
0.0195531
-7.85932e-10
0.0195531
5.9988e-09
0.0195531
4.99381e-10
0.0195531
-4.23054e-10
0.0195531
5.74102e-10
0.0195531
2.0996e-09
0.0195531
5.45104e-10
0.0195531
-7.11646e-10
0.0195531
-4.82274e-10
0.0195531
-6.53503e-10
0.0195531
1.49962e-10
0.0195531
1.06953e-09
0.0195531
9.63033e-10
0.0195531
1.13204e-09
0.0195531
1.59903e-09
0.0195531
1.94124e-09
0.0195531
2.66391e-09
0.0195531
4.0899e-09
0.0195531
5.88794e-09
0.0195531
8.86444e-09
0.0195531
1.25895e-08
0.0195531
1.7086e-08
0.019553
2.45642e-08
0.019553
3.55086e-08
0.019553
5.0652e-08
0.0195529
7.3084e-08
0.0195528
1.06052e-07
0.0195526
1.53804e-07
0.0195524
2.25098e-07
0.0195521
3.33182e-07
0.0195516
4.99435e-07
0.0195508
7.54618e-07
0.0195497
1.15203e-06
0.0195479
1.76537e-06
0.0195452
2.71499e-06
0.019541
4.20587e-06
0.0195345
6.52894e-06
0.0195244
1.00929e-05
0.0195088
1.55111e-05
0.0194851
2.37979e-05
0.0194482
3.68366e-05
0.0193918
5.63764e-05
0.0193102
8.16502e-05
0.0191942
0.000116006
0.0190101
0.000184034
0.0187162
0.00029399
0.0184202
0.00029595
0.0196352
-0.00121496
-0.00139779
0.0114625
-0.00717063
0.0154121
-0.00432679
0.0201151
-0.00654032
0.0247835
-0.0065654
0.0286326
-0.00519578
0.0319086
-0.00441061
0.0348362
-0.00399699
0.0374375
-0.0035638
0.0397057
-0.00310665
0.0416675
-0.00269241
0.0433566
-0.00232637
0.0447975
-0.00199035
0.0460153
-0.00168834
0.0470326
-0.00141393
0.0478728
-0.00116985
0.0485586
-0.000957427
0.0491121
-0.000774501
0.0495532
-0.000618721
0.0499002
-0.00048768
0.0501708
-0.000380824
0.0503802
-0.000295151
0.0505407
-0.000226636
0.0506624
-0.000172146
0.0507539
-0.000129585
0.0508221
-9.67084e-05
0.0508723
-7.12557e-05
0.0509095
-5.28874e-05
0.0509371
-3.92287e-05
0.0509569
-2.82265e-05
0.0509711
-2.0244e-05
0.0509812
-1.44595e-05
0.0509884
-1.03031e-05
0.0509935
-7.31932e-06
0.0509971
-5.14539e-06
0.0509996
-3.59625e-06
0.0510014
-2.50537e-06
0.0510026
-1.74335e-06
0.0510034
-1.20877e-06
0.051004
-8.31037e-07
0.0510044
-5.6797e-07
0.0510047
-3.87631e-07
0.0510048
-2.64087e-07
0.051005
-1.77979e-07
0.0510051
-1.18122e-07
0.0510051
-7.79818e-08
0.0510051
-5.35924e-08
0.0510052
-3.60161e-08
0.0510052
-2.31006e-08
0.0510052
-1.70471e-08
0.0510052
-1.4201e-08
0.0510052
-2.33858e-08
0.0510052
-2.6996e-09
0.0510052
1.57391e-08
0.0510052
3.08946e-09
0.0510052
7.40668e-10
0.0510052
1.72673e-09
0.0510052
4.58477e-09
0.0510052
1.47275e-09
0.0510052
-1.94284e-09
0.0510052
-1.07761e-09
0.0510052
-1.35569e-09
0.0510052
3.57026e-11
0.0510052
2.4958e-09
0.0510052
2.76334e-09
0.0510052
3.34486e-09
0.0510052
4.98851e-09
0.0510052
6.58291e-09
0.0510052
8.89508e-09
0.0510052
1.32405e-08
0.0510052
1.94054e-08
0.0510052
2.91973e-08
0.0510051
4.18407e-08
0.0510051
5.7947e-08
0.0510051
8.27831e-08
0.051005
1.18956e-07
0.0510049
1.70102e-07
0.0510047
2.45003e-07
0.0510044
3.54535e-07
0.0510041
5.13303e-07
0.0510036
7.49663e-07
0.0510028
1.10598e-06
0.0510016
1.65016e-06
0.0509999
2.48451e-06
0.0509973
3.77956e-06
0.0509933
5.78345e-06
0.0509871
8.88662e-06
0.0509776
1.3742e-05
0.0509628
2.13064e-05
0.0509399
3.29747e-05
0.0509045
5.08575e-05
0.05085
7.83455e-05
0.0507659
0.00012093
0.0506379
0.000184394
0.0504481
0.000271492
0.050168
0.000396086
0.0497481
0.000603926
0.049179
0.000863068
0.048683
0.000791988
0.049151
-0.00168298
-0.00211326
0.0143223
-0.0164929
0.0216402
-0.0116447
0.0286002
-0.0135003
0.0351425
-0.0131077
0.0408362
-0.0108895
0.0457738
-0.00934821
0.0501127
-0.00833591
0.0539168
-0.00736785
0.05721
-0.00639986
0.060036
-0.00551838
0.0624426
-0.00473304
0.064473
-0.00402069
0.066166
-0.00338136
0.0675662
-0.00281412
0.0687135
-0.00231716
0.0696399
-0.00188379
0.0703801
-0.00151471
0.0709644
-0.00120302
0.0714204
-0.000943744
0.0717739
-0.00073428
0.0720457
-0.000566974
0.0722524
-0.000433326
0.0724082
-0.000327972
0.0725247
-0.000246092
0.0726112
-0.000183127
0.0726745
-0.000134625
0.0727211
-9.95019e-05
0.0727554
-7.34661e-05
0.0727799
-5.27699e-05
0.0727975
-3.77826e-05
0.07281
-2.69445e-05
0.0728188
-1.91457e-05
0.072825
-1.35529e-05
0.0728294
-9.51832e-06
0.0728325
-6.64563e-06
0.0728346
-4.62614e-06
0.072836
-3.21299e-06
0.0728371
-2.22142e-06
0.0728378
-1.52494e-06
0.0728382
-1.04084e-06
0.0728386
-7.08758e-07
0.0728388
-4.8127e-07
0.0728389
-3.24535e-07
0.072839
-2.16113e-07
0.0728391
-1.42106e-07
0.0728391
-9.63655e-08
0.0728392
-6.50161e-08
0.0728392
-4.23817e-08
0.0728392
-3.043e-08
0.0728392
-2.54523e-08
0.0728392
-3.92515e-08
0.0728392
-5.29675e-09
0.0728392
2.48993e-08
0.0728392
5.80516e-09
0.0728392
2.79488e-09
0.0728392
2.62519e-09
0.0728392
6.04762e-09
0.0728392
1.95917e-09
0.0728392
-3.73111e-09
0.0728392
-1.6695e-09
0.0728392
-1.49392e-09
0.0728392
-4.65934e-10
0.0728392
2.8075e-09
0.0728392
3.93923e-09
0.0728392
5.2971e-09
0.0728392
8.74328e-09
0.0728392
1.1949e-08
0.0728392
1.58005e-08
0.0728392
2.35678e-08
0.0728392
3.53534e-08
0.0728392
5.35882e-08
0.0728391
7.74667e-08
0.0728391
1.08496e-07
0.072839
1.54679e-07
0.0728389
2.21892e-07
0.0728388
3.17846e-07
0.0728385
4.57543e-07
0.0728382
6.61363e-07
0.0728378
9.56279e-07
0.0728372
1.39457e-06
0.0728362
2.051e-06
0.0728348
3.04661e-06
0.0728327
4.56949e-06
0.0728296
6.92817e-06
0.0728248
1.0583e-05
0.0728174
1.6235e-05
0.0728061
2.50422e-05
0.0727887
3.87839e-05
0.0727616
6.00733e-05
0.0727196
9.28377e-05
0.0726547
0.000143282
0.0725545
0.000221087
0.0724012
0.000337667
0.07217
0.000502737
0.0718244
0.000741714
0.071312
0.00111624
0.0705986
0.00157655
0.0696756
0.00171493
0.0679564
3.62022e-05
-0.000949055
0.0152777
-0.0267706
0.0244966
-0.0208636
0.0328176
-0.0218213
0.0404131
-0.0207032
0.0471905
-0.0176669
0.0531705
-0.0153282
0.0584094
-0.0135749
0.0629658
-0.0119242
0.0668958
-0.0103299
0.0702531
-0.00887565
0.0730917
-0.00757167
0.0754683
-0.00639728
0.0774361
-0.00534918
0.0790485
-0.00442651
0.080355
-0.0036236
0.0814009
-0.00292969
0.0822294
-0.0023433
0.0828792
-0.00185279
0.0833841
-0.00144865
0.0837734
-0.00112354
0.0840705
-0.000864125
0.0842949
-0.000657661
0.084463
-0.000496134
0.0845881
-0.000371183
0.0846805
-0.000275458
0.0847478
-0.000201986
0.0847972
-0.000148877
0.0848333
-0.000109615
0.0848591
-7.85497e-05
0.0848775
-5.61475e-05
0.0848905
-3.99794e-05
0.0848997
-2.83488e-05
0.0849062
-2.00168e-05
0.0849107
-1.40389e-05
0.0849139
-9.79513e-06
0.0849161
-6.81538e-06
0.0849176
-4.72535e-06
0.0849186
-3.25871e-06
0.0849193
-2.23386e-06
0.0849198
-1.52287e-06
0.0849201
-1.03503e-06
0.0849204
-7.00802e-07
0.0849205
-4.72853e-07
0.0849206
-3.15742e-07
0.0849207
-2.06745e-07
0.0849207
-1.38991e-07
0.0849207
-9.38961e-08
0.0849208
-6.15824e-08
0.0849208
-4.29686e-08
0.0849208
-3.44884e-08
0.0849208
-5.22245e-08
0.0849208
-8.3669e-09
0.0849208
3.1173e-08
0.0849208
6.97809e-09
0.0849208
4.1604e-09
0.0849208
2.83052e-09
0.0849208
6.93806e-09
0.0849208
1.91093e-09
0.0849208
-6.22728e-09
0.0849208
-2.69425e-09
0.0849208
-9.08334e-10
0.0849208
-8.3183e-10
0.0849208
1.6721e-09
0.0849208
4.06213e-09
0.0849208
6.67865e-09
0.0849208
1.25214e-08
0.0849208
1.67746e-08
0.0849208
2.18696e-08
0.0849208
3.38542e-08
0.0849208
5.15019e-08
0.0849208
7.84577e-08
0.0849207
1.14291e-07
0.0849207
1.61305e-07
0.0849206
2.30103e-07
0.0849205
3.30126e-07
0.0849203
4.73491e-07
0.0849201
6.8168e-07
0.0849198
9.84929e-07
0.0849193
1.42252e-06
0.0849186
2.07153e-06
0.0849176
3.04356e-06
0.0849162
4.50396e-06
0.084914
6.72717e-06
0.0849108
1.01688e-05
0.0849059
1.54981e-05
0.0848984
2.37488e-05
0.0848869
3.65621e-05
0.0848691
5.65523e-05
0.0848415
8.76252e-05
0.0847988
0.000135571
0.0847326
0.000209441
0.0846305
0.000323278
0.0844731
0.000495048
0.0842328
0.000742982
0.0838713
0.00110329
0.0833321
0.0016554
0.082531
0.00237765
0.0811922
0.00305368
0.0776981
0.00353035
0.00166149
0.0147194
-0.0364901
0.0242607
-0.0304049
0.0328444
-0.0304049
0.0406571
-0.0285159
0.0477639
-0.0247737
0.0541298
-0.0216942
0.0597367
-0.0191818
0.0646127
-0.0168002
0.0688175
-0.0145347
0.072407
-0.0124651
0.075434
-0.0105987
0.0779571
-0.00892039
0.0800329
-0.007425
0.0817217
-0.00611525
0.0830804
-0.00498234
0.084162
-0.00401122
0.0850122
-0.00319358
0.0856763
-0.00251687
0.0861921
-0.00196446
0.086587
-0.00151839
0.0868861
-0.00116326
0.0871111
-0.000882645
0.087279
-0.000664083
0.0874035
-0.000495647
0.087495
-0.000366977
0.0875615
-0.000268436
0.0876101
-0.000197464
0.0876456
-0.000145139
0.0876708
-0.000103753
0.0876887
-7.40629e-05
0.0877014
-5.26674e-05
0.0877103
-3.7287e-05
0.0877166
-2.62732e-05
0.087721
-1.84039e-05
0.087724
-1.28448e-05
0.0877261
-8.93368e-06
0.0877276
-6.17964e-06
0.0877286
-4.2538e-06
0.0877293
-2.91274e-06
0.0877297
-1.98391e-06
0.08773
-1.34661e-06
0.0877302
-9.09956e-07
0.0877304
-6.1358e-07
0.0877305
-4.10227e-07
0.0877305
-2.6791e-07
0.0877306
-1.79138e-07
0.0877306
-1.20854e-07
0.0877306
-7.90552e-08
0.0877306
-5.38742e-08
0.0877307
-3.96908e-08
0.0877307
-5.82268e-08
0.0877307
-1.17005e-08
0.0877307
3.15124e-08
0.0877307
5.5912e-09
0.0877307
4.28956e-09
0.0877307
2.24203e-09
0.0877307
7.36667e-09
0.0877307
1.4456e-09
0.0877307
-9.37008e-09
0.0877307
-4.1507e-09
0.0877307
-3.86951e-10
0.0877307
-9.44428e-10
0.0877307
8.69086e-11
0.0877307
3.32072e-09
0.0877307
7.498e-09
0.0877307
1.61244e-08
0.0877307
2.04777e-08
0.0877307
2.65654e-08
0.0877307
4.39606e-08
0.0877306
6.72549e-08
0.0877306
1.0221e-07
0.0877306
1.4954e-07
0.0877305
2.12289e-07
0.0877305
3.03939e-07
0.0877304
4.37077e-07
0.0877302
6.2756e-07
0.08773
9.03402e-07
0.0877297
1.3049e-06
0.0877292
1.88303e-06
0.0877285
2.7383e-06
0.0877276
4.01804e-06
0.0877261
5.9353e-06
0.087724
8.84806e-06
0.0877209
1.33305e-05
0.0877161
2.02656e-05
0.0877088
3.10149e-05
0.0876977
4.76978e-05
0.0876805
7.37152e-05
0.087654
0.000114204
0.0876127
0.000176796
0.0875489
0.000273295
0.0874501
0.000422062
0.0872973
0.00064789
0.0870622
0.000977989
0.0867065
0.00145901
0.0861711
0.00219081
0.0853441
0.00320464
0.0838467
0.00455107
0.0797997
0.00757743
0.00469936
0.0130498
-0.0445398
0.0216017
-0.0389569
0.0294236
-0.0382268
0.0366496
-0.035742
0.0433818
-0.0315059
0.0495184
-0.0278308
0.0549843
-0.0246476
0.0597723
-0.0215883
0.0639152
-0.0186776
0.067452
-0.016002
0.0704299
-0.0135765
0.0729058
-0.0113963
0.0749369
-0.00945608
0.0765822
-0.00776063
0.0778997
-0.00629981
0.0789436
-0.00505513
0.0797617
-0.00401171
0.0803972
-0.00315233
0.0808872
-0.00245446
0.0812611
-0.00189235
0.0815435
-0.00144557
0.081755
-0.0010942
0.0819124
-0.000821509
0.0820288
-0.000612006
0.0821141
-0.000452249
0.0821757
-0.000330069
0.0822207
-0.000242431
0.0822535
-0.000177979
0.0822767
-0.000126927
0.0822931
-9.05214e-05
0.0823048
-6.43063e-05
0.082313
-4.5471e-05
0.0823187
-3.199e-05
0.0823227
-2.23958e-05
0.0823255
-1.56292e-05
0.0823274
-1.08537e-05
0.0823287
-7.49752e-06
0.0823296
-5.15446e-06
0.0823302
-3.52661e-06
0.0823306
-2.40092e-06
0.0823309
-1.6282e-06
0.0823311
-1.09874e-06
0.0823312
-7.3985e-07
0.0823313
-4.94785e-07
0.0823314
-3.22556e-07
0.0823314
-2.14856e-07
0.0823314
-1.44576e-07
0.0823315
-9.37602e-08
0.0823315
-6.20413e-08
0.0823315
-4.06474e-08
0.0823315
-5.27065e-08
0.0823315
-1.46146e-08
0.0823315
2.14318e-08
0.0823315
9.82784e-10
0.0823315
2.40138e-09
0.0823315
7.65935e-10
0.0823315
7.83255e-09
0.0823315
7.87348e-10
0.0823315
-1.29482e-08
0.0823315
-5.87948e-09
0.0823315
-4.42791e-10
0.0823315
-8.94364e-10
0.0823315
-1.30656e-09
0.0823315
1.96666e-09
0.0823315
7.7583e-09
0.0823315
1.91469e-08
0.0823315
2.31683e-08
0.0823315
3.00012e-08
0.0823315
5.27211e-08
0.0823315
8.18129e-08
0.0823315
1.24089e-07
0.0823314
1.81292e-07
0.0823314
2.58655e-07
0.0823313
3.72155e-07
0.0823312
5.36849e-07
0.0823311
7.71606e-07
0.0823309
1.11056e-06
0.0823306
1.60363e-06
0.0823301
2.31286e-06
0.0823295
3.35993e-06
0.0823286
4.92471e-06
0.0823273
7.26603e-06
0.0823253
1.08207e-05
0.0823224
1.6261e-05
0.082318
2.46654e-05
0.0823113
3.77032e-05
0.0823011
5.79365e-05
0.0822853
8.948e-05
0.0822609
0.000138595
0.0822231
0.000214624
0.0821645
0.000331926
0.0820736
0.000512913
0.0819325
0.000788943
0.0817144
0.00119611
0.0813823
0.00179112
0.0808801
0.00269307
0.0801001
0.0039846
0.0787192
0.00593197
0.0752888
0.0110078
0.00720755
0.0107269
-0.0502667
0.0173866
-0.0456166
0.0236595
-0.0444997
0.0296452
-0.0417277
0.0354196
-0.0372803
0.0408095
-0.0332206
0.0456933
-0.0295314
0.0500256
-0.0259207
0.053801
-0.0224529
0.0570367
-0.0192377
0.0597635
-0.0163033
0.0620276
-0.0136604
0.0638818
-0.0113102
0.0653795
-0.00925837
0.0665744
-0.00749469
0.0675175
-0.00599824
0.068254
-0.00474825
0.0688237
-0.00372201
0.0692606
-0.00289132
0.0695926
-0.00222437
0.0698425
-0.00169544
0.0700289
-0.00128065
0.0701674
-0.000959948
0.0702696
-0.000714226
0.0703442
-0.000526858
0.0703979
-0.000383805
0.070437
-0.000281494
0.0704654
-0.000206386
0.0704854
-0.000146889
0.0704996
-0.000104727
0.0705096
-7.43454e-05
0.0705167
-5.25101e-05
0.0705216
-3.69103e-05
0.070525
-2.58286e-05
0.0705274
-1.80062e-05
0.070529
-1.24902e-05
0.0705301
-8.61966e-06
0.0705309
-5.92002e-06
0.0705314
-4.04822e-06
0.0705318
-2.75597e-06
0.070532
-1.86763e-06
0.0705322
-1.2591e-06
0.0705323
-8.46701e-07
0.0705324
-5.65977e-07
0.0705324
-3.68325e-07
0.0705325
-2.44677e-07
0.0705325
-1.63998e-07
0.0705325
-1.0501e-07
0.0705325
-6.70526e-08
0.0705325
-3.76427e-08
0.0705325
-3.15124e-08
0.0705325
-1.67285e-08
0.0705325
-3.10084e-09
0.0705325
-6.65741e-09
0.0705325
-1.71646e-09
0.0705325
-1.51979e-09
0.0705325
8.3392e-09
0.0705325
-6.08713e-11
0.0705325
-1.63442e-08
0.0705325
-7.54069e-09
0.0705325
-7.89991e-10
0.0705325
-1.28477e-09
0.0705325
-2.68159e-09
0.0705325
7.16215e-10
0.0705325
7.46491e-09
0.0705325
2.11613e-08
0.0705325
2.48771e-08
0.0705325
3.23485e-08
0.0705325
5.9747e-08
0.0705325
9.39359e-08
0.0705325
1.42722e-07
0.0705325
2.08322e-07
0.0705324
2.98377e-07
0.0705324
4.31593e-07
0.0705323
6.24293e-07
0.0705322
8.98529e-07
0.070532
1.29253e-06
0.0705317
1.86552e-06
0.0705313
2.69056e-06
0.0705308
3.90604e-06
0.07053
5.72026e-06
0.0705288
8.43221e-06
0.0705271
1.25438e-05
0.0705246
1.88223e-05
0.0705207
2.85064e-05
0.0705149
4.35219e-05
0.070506
6.6829e-05
0.0704923
0.000103155
0.0704712
0.000159734
0.0704384
0.000247412
0.0703875
0.000382806
0.0703085
0.000591894
0.0701856
0.000911906
0.0699943
0.00138737
0.0697009
0.00208452
0.0692576
0.00313636
0.0685839
0.00465832
0.0675003
0.00701554
0.0653888
0.0131194
0.00861594
0.00817179
-0.0534385
0.0124804
-0.0499253
0.0167296
-0.0487488
0.0210289
-0.0460271
0.0254275
-0.0416789
0.0296891
-0.0374823
0.0336498
-0.0334921
0.0372307
-0.0295016
0.0403912
-0.0256134
0.0431187
-0.0219652
0.0454254
-0.01861
0.0473424
-0.0155775
0.048911
-0.0128788
0.0501754
-0.0105228
0.0511811
-0.00850031
0.0519719
-0.00678907
0.0525872
-0.00536355
0.0530611
-0.00419596
0.0534228
-0.00325294
0.0536964
-0.00249796
0.0539015
-0.00190062
0.0540542
-0.00143332
0.0541671
-0.00107281
0.05425
-0.000797178
0.0543106
-0.000587397
0.0543542
-0.000427484
0.0543857
-0.00031292
0.0544082
-0.0002289
0.0544241
-0.000162772
0.0544354
-0.000116014
0.0544433
-8.23285e-05
0.054449
-5.8121e-05
0.0544529
-4.08199e-05
0.0544556
-2.85458e-05
0.0544575
-1.9883e-05
0.0544588
-1.378e-05
0.0544596
-9.5028e-06
0.0544602
-6.52143e-06
0.0544606
-4.4581e-06
0.0544609
-3.03532e-06
0.0544611
-2.05538e-06
0.0544612
-1.38488e-06
0.0544613
-9.30243e-07
0.0544614
-6.21338e-07
0.0544614
-4.04324e-07
0.0544614
-2.67721e-07
0.0544615
-1.7809e-07
0.0544615
-1.12402e-07
0.0544615
-6.903e-08
0.0544615
-3.24614e-08
0.0544614
2.42613e-09
0.0544614
-1.77961e-08
0.0544615
-3.9101e-08
0.0544615
-1.5505e-08
0.0544615
-6.99277e-09
0.0544615
-4.81846e-09
0.0544615
7.15631e-09
0.0544615
-1.17168e-09
0.0544615
-1.79313e-08
0.0544615
-8.36222e-09
0.0544615
-1.37038e-09
0.0544615
-2.02199e-09
0.0544615
-3.88106e-09
0.0544615
-4.82927e-10
0.0544615
6.52121e-09
0.0544615
2.13202e-08
0.0544615
2.55785e-08
0.0544615
3.43134e-08
0.0544615
6.48093e-08
0.0544615
1.02729e-07
0.0544615
1.56619e-07
0.0544615
2.29311e-07
0.0544614
3.3014e-07
0.0544614
4.79622e-07
0.0544613
6.95107e-07
0.0544612
1.00176e-06
0.0544611
1.44061e-06
0.0544609
2.07817e-06
0.0544605
2.99812e-06
0.0544601
4.35145e-06
0.0544595
6.36824e-06
0.0544585
9.38085e-06
0.0544571
1.3942e-05
0.054455
2.08994e-05
0.0544519
3.16164e-05
0.0544472
4.82202e-05
0.0544401
7.39947e-05
0.0544291
0.000114158
0.0544121
0.000176727
0.0543857
0.00027378
0.0543447
0.000423805
0.0542809
0.000655683
0.0541813
0.00101148
0.0540253
0.00154346
0.053783
0.00232673
0.0534183
0.00350106
0.0528837
0.00519299
0.052143
0.00775623
0.0514286
0.0138338
0.00886729
0.00571371
-0.0541522
0.00758996
-0.0518015
0.00966284
-0.0508217
0.0120622
-0.0484264
0.0148364
-0.0444531
0.0177224
-0.0403683
0.0205274
-0.036297
0.0231463
-0.0321206
0.0255088
-0.0279759
0.0275742
-0.0240305
0.0293329
-0.0203687
0.0307988
-0.0170434
0.0319985
-0.0140785
0.0329639
-0.0114882
0.0337292
-0.00926565
0.0343286
-0.00738844
0.0347928
-0.00582772
0.0351485
-0.00455168
0.0354183
-0.0035227
0.0356212
-0.00270091
0.0357727
-0.00205214
0.0358849
-0.00154551
0.0359674
-0.00115532
0.0360278
-0.000857526
0.0360718
-0.000631447
0.0361044
-0.000460033
0.0361269
-0.000335481
0.036142
-0.000243961
0.0361532
-0.000173912
0.0361611
-0.000123994
0.0361668
-8.79713e-05
0.0361707
-6.20747e-05
0.0361735
-4.35727e-05
0.0361754
-3.04532e-05
0.0361767
-2.11956e-05
0.0361776
-1.46799e-05
0.0361782
-1.01176e-05
0.0361786
-6.94027e-06
0.0361789
-4.74285e-06
0.0361791
-3.2282e-06
0.0361793
-2.18512e-06
0.0361793
-1.47178e-06
0.0361794
-9.87779e-07
0.0361794
-6.59432e-07
0.0361795
-4.31278e-07
0.0361795
-2.83429e-07
0.0361795
-1.85644e-07
0.0361795
-1.1589e-07
0.0361795
-6.79661e-08
0.0361795
-2.83739e-08
0.0361795
2.17638e-08
0.0361795
-1.81871e-08
0.0361795
-5.92434e-08
0.0361795
-2.16297e-08
0.0361795
-1.19872e-08
0.0361795
-8.8869e-09
0.0361795
3.42229e-10
0.0361795
-3.80794e-09
0.0361795
-1.40608e-08
0.0361795
-6.79783e-09
0.0361795
-1.80077e-09
0.0361795
-2.99491e-09
0.0361795
-4.94406e-09
0.0361795
-1.74666e-09
0.0361795
4.76218e-09
0.0361795
1.79579e-08
0.0361795
2.51133e-08
0.0361795
3.73971e-08
0.0361795
6.79285e-08
0.0361795
1.0777e-07
0.0361795
1.64391e-07
0.0361795
2.42637e-07
0.0361795
3.5312e-07
0.0361795
5.14496e-07
0.0361794
7.45816e-07
0.0361793
1.07574e-06
0.0361792
1.54754e-06
0.0361791
2.23154e-06
0.0361788
3.22214e-06
0.0361785
4.67741e-06
0.0361781
6.84009e-06
0.0361774
1.00703e-05
0.0361763
1.49556e-05
0.0361748
2.24023e-05
0.0361726
3.38607e-05
0.0361692
5.15989e-05
0.0361641
7.91335e-05
0.0361562
0.000122032
0.0361441
0.00018887
0.0361252
0.000292639
0.0360958
0.000453232
0.0360498
0.00070165
0.0359778
0.00108353
0.0358634
0.00165784
0.0356823
0.00250786
0.0354096
0.00377377
0.0350239
0.00557863
0.0345713
0.00820889
0.0348159
0.0135891
0.00834278
0.00357354
-0.0527257
0.00320717
-0.0514352
0.00319456
-0.0508091
0.00369441
-0.0489263
0.00477358
-0.0455322
0.00617958
-0.0417743
0.0077072
-0.0378247
0.00923568
-0.033649
0.0106789
-0.0294192
0.0119761
-0.0253277
0.0130975
-0.0214901
0.014038
-0.0179839
0.0148087
-0.0148492
0.0154275
-0.012107
0.0159156
-0.00975373
0.0162952
-0.00776801
0.0165868
-0.00611935
0.0168082
-0.00477314
0.0169744
-0.00368888
0.0170981
-0.00282456
0.0171894
-0.00214351
0.0172565
-0.00161262
0.0173054
-0.00120418
0.0173408
-0.000892917
0.0173667
-0.000657314
0.0173885
-0.000481886
0.0174014
-0.000348404
0.0174069
-0.000249392
0.0174128
-0.000179873
0.0174172
-0.000128397
0.0174204
-9.10815e-05
0.0174225
-6.42427e-05
0.017424
-4.50789e-05
0.0174251
-3.14904e-05
0.0174258
-2.19028e-05
0.0174263
-1.51626e-05
0.0174266
-1.0446e-05
0.0174268
-7.16339e-06
0.017427
-4.89367e-06
0.0174271
-3.32957e-06
0.0174271
-2.25313e-06
0.0174272
-1.5172e-06
0.0174272
-1.01758e-06
0.0174272
-6.79297e-07
0.0174273
-4.5274e-07
0.0174273
-2.91343e-07
0.0174273
-1.84342e-07
0.0174273
-1.15732e-07
0.0174273
-6.25117e-08
0.0174273
-2.6329e-08
0.0174273
1.82542e-08
0.0174273
-1.94693e-08
0.0174273
-5.54422e-08
0.0174273
-2.23777e-08
0.0174273
-1.54865e-08
0.0174273
-1.32176e-08
0.0174273
-2.04942e-08
0.0174273
-1.07363e-08
0.0174273
3.26399e-09
0.0174273
-1.14573e-10
0.0174273
-1.57072e-09
0.0174273
-4.10155e-09
0.0174273
-6.01219e-09
0.0174273
-3.20546e-09
0.0174273
2.1867e-09
0.0174273
7.37935e-09
0.0174273
2.31726e-08
0.0174273
4.52146e-08
0.0174273
6.92167e-08
0.0174273
1.08866e-07
0.0174273
1.63806e-07
0.0174273
2.46079e-07
0.0174273
3.68009e-07
0.0174273
5.36103e-07
0.0174272
7.74124e-07
0.0174272
1.11742e-06
0.0174271
1.60848e-06
0.017427
2.31544e-06
0.0174269
3.35258e-06
0.0174267
4.87251e-06
0.0174265
7.11527e-06
0.0174261
1.04708e-05
0.0174255
1.55415e-05
0.0174246
2.32667e-05
0.0174233
3.51435e-05
0.0174214
5.35161e-05
0.0174185
8.20328e-05
0.0174141
0.000126453
0.0174073
0.000195671
0.0173967
0.000303226
0.01738
0.000469884
0.0173538
0.0007279
0.0173122
0.00112512
0.0172442
0.00172584
0.0171318
0.0026203
0.0169605
0.00394502
0.0167247
0.00581447
0.0164869
0.00844672
0.0170619
0.0130141
0.00761158
0.00186622
-0.0495919
-0.000387532
-0.0491814
-0.00222844
-0.0489682
-0.00347065
-0.0476841
-0.00401944
-0.0449835
-0.00408905
-0.0417047
-0.00386873
-0.038045
-0.00347656
-0.0340412
-0.00300735
-0.0298884
-0.00253433
-0.0258007
-0.00210035
-0.0219241
-0.00172821
-0.0183561
-0.00142264
-0.0151548
-0.00117863
-0.012351
-0.000989732
-0.00994263
-0.000846604
-0.00791114
-0.000739898
-0.00622605
-0.000661787
-0.00485125
-0.000605877
-0.00374479
-0.000566369
-0.00286407
-0.000538569
-0.00217131
-0.000518938
-0.00163225
-0.000505403
-0.00121772
-0.000496198
-0.000902122
-0.000489632
-0.000663879
-0.000484334
-0.000487183
-0.000481475
-0.000351262
-0.000480654
-0.000250212
-0.000479739
-0.000180788
-0.000479017
-0.000129118
-0.000478519
-9.15795e-05
-0.000478191
-6.45695e-05
-0.00047797
-4.52988e-05
-0.000477827
-3.16333e-05
-0.000477737
-2.19914e-05
-0.000477682
-1.52173e-05
-0.000477647
-1.04808e-05
-0.000477623
-7.18578e-06
-0.000477609
-4.90757e-06
-0.0004776
-3.33779e-06
-0.000477594
-2.2581e-06
-0.00047759
-1.52015e-06
-0.000477588
-1.01896e-06
-0.000477587
-6.79914e-07
-0.000477584
-4.54841e-07
-0.000477584
-2.90915e-07
-0.000477586
-1.8148e-07
-0.000477588
-1.12901e-07
-0.000477591
-5.92448e-08
-0.000477591
-2.52891e-08
-0.000477587
1.46666e-08
-0.000477587
-1.84907e-08
-0.000477591
-5.03549e-08
-0.000477591
-2.22565e-08
-0.000477588
-1.73002e-08
-0.000477585
-1.60811e-08
-0.000477577
-2.70407e-08
-0.000477574
-1.33665e-08
-0.000477577
7.41273e-09
-0.000477578
1.73836e-09
-0.000477577
-2.23602e-09
-0.000477575
-5.38298e-09
-0.000477573
-7.22407e-09
-0.000477571
-4.92461e-09
-0.000477567
-5.41621e-10
-0.000477561
2.29656e-09
-0.000477558
2.03151e-08
-0.000477557
4.5038e-08
-0.000477554
6.73631e-08
-0.000477551
1.06213e-07
-0.000477547
1.60449e-07
-0.000477544
2.43814e-07
-0.000477544
3.68656e-07
-0.000477546
5.38684e-07
-0.000477549
7.78524e-07
-0.000477556
1.12507e-06
-0.000477568
1.62117e-06
-0.000477586
2.33453e-06
-0.000477617
3.3837e-06
-0.000477663
4.91983e-06
-0.000477729
7.18161e-06
-0.000477823
1.05654e-05
-0.000477956
1.56753e-05
-0.000478145
2.34567e-05
-0.000478412
3.54114e-05
-0.000478789
5.38931e-05
-0.000479331
8.25752e-05
-0.000480123
0.000127247
-0.000481316
0.000196864
-0.000483215
0.000305126
-0.000486416
0.000473085
-0.000491864
0.000733349
-0.000501356
0.00113461
-0.000520185
0.00174467
-0.000558589
0.0026587
-0.000621469
0.0040079
-0.000707122
0.00590012
-0.000765158
0.00850476
-0.000159647
0.0124086
0.00694966
0.000618132
-0.0452101
-0.00309645
-0.0454668
-0.0064202
-0.0456444
-0.00914811
-0.0449562
-0.0111598
-0.0429718
-0.0126082
-0.0402562
-0.0136429
-0.0370104
-0.0143695
-0.0333146
-0.0148776
-0.0293803
-0.0152423
-0.0254359
-0.0155148
-0.0216516
-0.0157282
-0.0181427
-0.015901
-0.0149819
-0.0160444
-0.0122077
-0.0161647
-0.00982234
-0.0162656
-0.00781019
-0.0163492
-0.00614242
-0.0164183
-0.00478216
-0.0164756
-0.00368752
-0.0165224
-0.00281725
-0.0165597
-0.00213402
-0.0165885
-0.00160341
-0.0166109
-0.00119538
-0.0166282
-0.000884838
-0.0166412
-0.00065085
-0.016651
-0.000477387
-0.0166583
-0.00034393
-0.0166638
-0.000244737
-0.0166679
-0.000176645
-0.0166709
-0.000126145
-0.016673
-8.94529e-05
-0.0166745
-6.30588e-05
-0.0166756
-4.42313e-05
-0.0166764
-3.08802e-05
-0.0166769
-2.14606e-05
-0.0166773
-1.48455e-05
-0.0166775
-1.02224e-05
-0.0166777
-7.00766e-06
-0.0166778
-4.78514e-06
-0.0166779
-3.25347e-06
-0.016678
-2.20022e-06
-0.016678
-1.48065e-06
-0.016678
-9.91901e-07
-0.016678
-6.614e-07
-0.0166781
-4.41826e-07
-0.0166781
-2.82161e-07
-0.0166781
-1.74887e-07
-0.0166781
-1.07486e-07
-0.0166781
-5.61121e-08
-0.0166781
-2.44644e-08
-0.0166781
1.02415e-08
-0.0166781
-1.64659e-08
-0.0166781
-4.32503e-08
-0.0166781
-2.09259e-08
-0.0166781
-1.75472e-08
-0.0166781
-1.73738e-08
-0.0166781
-2.76495e-08
-0.0166781
-1.41452e-08
-0.0166781
6.47387e-09
-0.0166781
1.24339e-09
-0.0166781
-3.46571e-09
-0.0166781
-6.83634e-09
-0.0166781
-8.64448e-09
-0.0166781
-6.9027e-09
-0.0166781
-3.39726e-09
-0.0166781
-1.03789e-09
-0.0166781
1.64697e-08
-0.016678
4.07248e-08
-0.016678
6.24698e-08
-0.016678
9.97573e-08
-0.016678
1.52625e-07
-0.016678
2.34307e-07
-0.016678
3.56531e-07
-0.016678
5.23351e-07
-0.016678
7.58582e-07
-0.0166779
1.09818e-06
-0.0166779
1.58473e-06
-0.0166779
2.2847e-06
-0.0166778
3.3134e-06
-0.0166777
4.81901e-06
-0.0166775
7.03484e-06
-0.0166773
1.03481e-05
-0.016677
1.53485e-05
-0.0166765
2.29601e-05
-0.0166757
3.46469e-05
-0.0166745
5.27051e-05
-0.0166727
8.07257e-05
-0.0166698
0.000124362
-0.0166653
0.000192375
-0.0166584
0.000298219
-0.0166479
0.000462611
-0.0166322
0.000717604
-0.016609
0.00111139
-0.0165773
0.001713
-0.0165384
0.0026198
-0.0164878
0.00395737
-0.0164177
0.00582998
-0.0162849
0.00837199
-0.0156321
0.0117558
0.00635492
-0.00020446
-0.0400056
-0.0049564
-0.0407149
-0.00939556
-0.0412052
-0.0133184
-0.0410334
-0.0165712
-0.039719
-0.0192353
-0.0375921
-0.0214183
-0.0348274
-0.0231961
-0.0315368
-0.0246403
-0.0279361
-0.0258181
-0.0242581
-0.0267822
-0.0206875
-0.0275725
-0.0173525
-0.0282189
-0.0143355
-0.0287457
-0.0116808
-0.0291724
-0.00939566
-0.0295152
-0.00746741
-0.029788
-0.00586959
-0.0300034
-0.00456678
-0.0301722
-0.00351869
-0.0303034
-0.00268614
-0.030404
-0.00203333
-0.0304805
-0.00152694
-0.030538
-0.00113788
-0.0305812
-0.000841668
-0.0306134
-0.000618653
-0.0306374
-0.000453401
-0.0306546
-0.000326675
-0.0306668
-0.000232597
-0.0306758
-0.000167561
-0.0306824
-0.000119563
-0.0306871
-8.47648e-05
-0.0306904
-5.97637e-05
-0.0306927
-4.19161e-05
-0.0306943
-2.92591e-05
-0.0306955
-2.03297e-05
-0.0306963
-1.40603e-05
-0.0306968
-9.68037e-06
-0.0306972
-6.63553e-06
-0.0306974
-4.53035e-06
-0.0306976
-3.07944e-06
-0.0306977
-2.08201e-06
-0.0306978
-1.40064e-06
-0.0306978
-9.37688e-07
-0.0306979
-6.24579e-07
-0.0306979
-4.15892e-07
-0.0306979
-2.65419e-07
-0.0306979
-1.6384e-07
-0.0306979
-9.94776e-08
-0.0306979
-5.20682e-08
-0.0306979
-2.31537e-08
-0.0306979
6.11676e-09
-0.0306979
-1.39181e-08
-0.0306979
-3.5311e-08
-0.0306979
-1.8578e-08
-0.030698
-1.65751e-08
-0.0306979
-1.74246e-08
-0.030698
-2.58803e-08
-0.030698
-1.40963e-08
-0.0306979
3.82211e-09
-0.0306979
-2.85165e-10
-0.0306979
-4.99041e-09
-0.0306979
-8.42119e-09
-0.0306979
-1.02756e-08
-0.0306979
-9.13075e-09
-0.0306979
-6.46009e-09
-0.0306979
-4.13672e-09
-0.0306979
1.16459e-08
-0.0306979
3.38983e-08
-0.0306979
5.48051e-08
-0.0306979
8.96271e-08
-0.0306979
1.39785e-07
-0.0306979
2.17187e-07
-0.0306978
3.32599e-07
-0.0306978
4.91117e-07
-0.0306978
7.14874e-07
-0.0306977
1.03748e-06
-0.0306976
1.50006e-06
-0.0306975
2.16617e-06
-0.0306973
3.14358e-06
-0.0306971
4.57389e-06
-0.0306967
6.67913e-06
-0.0306962
9.82515e-06
-0.0306954
1.45707e-05
-0.0306943
2.17915e-05
-0.0306925
3.2873e-05
-0.0306898
4.99883e-05
-0.0306856
7.65417e-05
-0.0306791
0.000117889
-0.0306691
0.000182346
-0.0306536
0.000282717
-0.0306297
0.000438769
-0.0305932
0.000681092
-0.0305378
0.00105598
-0.030456
0.00163122
-0.0303393
0.00250307
-0.0301728
0.00379085
-0.0299382
0.00559534
-0.0295881
0.00802198
-0.0287834
0.010951
0.00574765
-0.000672441
-0.0343332
-0.00608864
-0.0352987
-0.0113004
-0.0359935
-0.0161195
-0.0362143
-0.0203709
-0.0354675
-0.0240656