/*--------------------------------*- C++ -*----------------------------------*\
| =========                 |                                                 |
| \\      /  F ield         | foam-extend: Open Source CFD                    |
|  \\    /   O peration     | Version:     5.0                                |
|   \\  /    A nd           | Web:         http://www.foam-extend.org         |
|    \\/     M anipulation  |                                                 |
\*---------------------------------------------------------------------------*/
FoamFile
{
    version     2.0;
    format      ascii;
    class       volVectorField;
    location    "0.03";
    object      U;
}
// * * * * * * * * * * * * * * * * * * * * * * * * * * * * * * * * * * * * * //

dimensions      [0 1 -1 0 0 0 0];

internalField   nonuniform List<vector> 
4000
(
(0.570152 -0.00833878 0)
(1.27035 0.00113412 0)
(1.39422 -0.0398766 0)
(1.76683 -0.0440883 0)
(2.11242 -0.0299362 0)
(2.35864 -0.0245419 0)
(2.57242 -0.0237542 0)
(2.77517 -0.0218187 0)
(2.95593 -0.0192029 0)
(3.11256 -0.0168804 0)
(3.24866 -0.0149175 0)
(3.36692 -0.013015 0)
(3.46858 -0.0113082 0)
(3.55477 -0.00962337 0)
(3.62713 -0.00808065 0)
(3.6868 -0.00671302 0)
(3.73572 -0.00552008 0)
(3.77523 -0.00446716 0)
(3.80674 -0.00356858 0)
(3.83152 -0.00280756 0)
(3.85089 -0.00220144 0)
(3.86587 -0.00170598 0)
(3.87736 -0.00130962 0)
(3.88607 -0.000991524 0)
(3.89262 -0.0007469 0)
(3.89748 -0.000552163 0)
(3.90108 -0.000414577 0)
(3.90377 -0.000310151 0)
(3.90575 -0.000224668 0)
(3.90716 -0.000161413 0)
(3.90818 -0.000115873 0)
(3.90889 -8.29832e-05 0)
(3.90942 -5.96864e-05 0)
(3.90978 -4.19029e-05 0)
(3.91004 -2.94449e-05 0)
(3.91022 -2.05201e-05 0)
(3.91035 -1.43678e-05 0)
(3.91043 -9.99907e-06 0)
(3.91049 -6.91649e-06 0)
(3.91054 -4.73205e-06 0)
(3.91056 -3.25549e-06 0)
(3.91058 -2.2283e-06 0)
(3.9106 -1.50381e-06 0)
(3.91061 -9.90976e-07 0)
(3.91061 -6.62107e-07 0)
(3.91062 -4.6765e-07 0)
(3.91062 -3.12527e-07 0)
(3.91062 -1.92464e-07 0)
(3.91062 -1.46685e-07 0)
(3.91062 -1.18725e-07 0)
(3.91062 -2.18182e-07 0)
(3.91062 -2.1923e-08 0)
(3.91062 1.54514e-07 0)
(3.91062 1.76241e-08 0)
(3.91062 -1.70405e-08 0)
(3.91062 1.56633e-08 0)
(3.91062 6.08565e-08 0)
(3.91062 1.76222e-08 0)
(3.91062 -1.68206e-08 0)
(3.91062 -1.54933e-08 0)
(3.91062 -2.0592e-08 0)
(3.91062 5.97767e-09 0)
(3.91062 3.35849e-08 0)
(3.91062 3.04953e-08 0)
(3.91062 3.40613e-08 0)
(3.91062 4.43947e-08 0)
(3.91062 5.32261e-08 0)
(3.91062 7.48869e-08 0)
(3.91062 1.13607e-07 0)
(3.91062 1.61918e-07 0)
(3.91062 2.40192e-07 0)
(3.91062 3.39032e-07 0)
(3.91062 4.56658e-07 0)
(3.91061 6.57815e-07 0)
(3.91061 9.4934e-07 0)
(3.9106 1.35701e-06 0)
(3.91059 1.95558e-06 0)
(3.91057 2.8484e-06 0)
(3.91054 4.13508e-06 0)
(3.91051 6.0847e-06 0)
(3.91045 9.03059e-06 0)
(3.91037 1.36387e-05 0)
(3.91025 2.06732e-05 0)
(3.91007 3.17633e-05 0)
(3.90979 4.87288e-05 0)
(3.90936 7.53329e-05 0)
(3.90869 0.000116737 0)
(3.90766 0.000181763 0)
(3.90606 0.000279944 0)
(3.90361 0.000430429 0)
(3.89983 0.000657685 0)
(3.89397 0.00101776 0)
(3.8849 0.00153965 0)
(3.87164 0.00221048 0)
(3.8529 0.00312855 0)
(3.8227 0.0049874 0)
(3.76919 0.0075305 0)
(3.69055 0.00495804 0)
(3.85525 -0.0418378 0)
(4.03469 -0.0444762 0)
(1.04348 -0.155659 0)
(2.93427 -0.0846447 0)
(3.55838 -0.183604 0)
(4.47012 -0.187991 0)
(5.37424 -0.142154 0)
(6.08727 -0.120001 0)
(6.69118 -0.110552 0)
(7.24206 -0.0992135 0)
(7.73005 -0.0866528 0)
(8.15229 -0.0754091 0)
(8.51534 -0.0655436 0)
(8.82713 -0.0563866 0)
(9.09194 -0.0481147 0)
(9.31372 -0.0404898 0)
(9.49878 -0.0336395 0)
(9.65004 -0.0276626 0)
(9.77301 -0.0224732 0)
(9.87147 -0.0180255 0)
(9.94939 -0.0142509 0)
(10.0103 -0.0111601 0)
(10.0577 -0.00867388 0)
(10.0941 -0.00668261 0)
(10.1219 -0.00508806 0)
(10.1429 -0.00383928 0)
(10.1586 -0.00287122 0)
(10.1702 -0.00211807 0)
(10.1787 -0.00157673 0)
(10.1851 -0.001174 0)
(10.1897 -0.000844867 0)
(10.193 -0.000606675 0)
(10.1954 -0.000433663 0)
(10.1971 -0.000309746 0)
(10.1983 -0.000220724 0)
(10.1991 -0.000155188 0)
(10.1997 -0.000108523 0)
(10.2001 -7.5665e-05 0)
(10.2004 -5.271e-05 0)
(10.2006 -3.66148e-05 0)
(10.2008 -2.51947e-05 0)
(10.2008 -1.72348e-05 0)
(10.2009 -1.178e-05 0)
(10.201 -8.04234e-06 0)
(10.201 -5.41595e-06 0)
(10.201 -3.58724e-06 0)
(10.201 -2.37097e-06 0)
(10.201 -1.64458e-06 0)
(10.201 -1.10232e-06 0)
(10.201 -6.98037e-07 0)
(10.201 -5.22678e-07 0)
(10.201 -4.22937e-07 0)
(10.201 -7.50826e-07 0)
(10.201 -7.56941e-08 0)
(10.201 5.26347e-07 0)
(10.201 8.43125e-08 0)
(10.201 8.64716e-09 0)
(10.201 6.1307e-08 0)
(10.201 1.72145e-07 0)
(10.201 5.5701e-08 0)
(10.201 -5.88467e-08 0)
(10.201 -3.29723e-08 0)
(10.201 -4.74652e-08 0)
(10.201 1.00817e-08 0)
(10.201 9.66835e-08 0)
(10.201 9.69177e-08 0)
(10.201 1.1218e-07 0)
(10.201 1.59454e-07 0)
(10.201 2.03461e-07 0)
(10.201 2.74363e-07 0)
(10.201 4.08468e-07 0)
(10.201 5.90296e-07 0)
(10.201 8.84817e-07 0)
(10.201 1.25939e-06 0)
(10.201 1.72718e-06 0)
(10.201 2.46978e-06 0)
(10.201 3.55414e-06 0)
(10.201 5.07383e-06 0)
(10.201 7.31143e-06 0)
(10.2009 1.05899e-05 0)
(10.2009 1.53465e-05 0)
(10.2008 2.24375e-05 0)
(10.2006 3.31619e-05 0)
(10.2005 4.96114e-05 0)
(10.2002 7.48902e-05 0)
(10.1998 0.000114165 0)
(10.1991 0.000174947 0)
(10.1982 0.000269013 0)
(10.1966 0.000416585 0)
(10.1943 0.000646376 0)
(10.1907 0.00100019 0)
(10.1851 0.00154046 0)
(10.1765 0.0023702 0)
(10.1632 0.00366162 0)
(10.1426 0.00558852 0)
(10.1122 0.00817079 0)
(10.0677 0.0118079 0)
(9.99713 0.0182293 0)
(9.88648 0.0267694 0)
(9.74275 0.0233516 0)
(9.9791 -0.0837014 0)
(9.73361 -0.0970609 0)
(1.15418 -0.571707 0)
(3.94175 -0.373689 0)
(5.06962 -0.483959 0)
(6.34587 -0.478761 0)
(7.63663 -0.38851 0)
(8.70921 -0.331099 0)
(9.61621 -0.297397 0)
(10.427 -0.264119 0)
(11.1366 -0.229887 0)
(11.7476 -0.198763 0)
(12.2675 -0.171157 0)
(12.7093 -0.145985 0)
(13.08 -0.123346 0)
(13.386 -0.103043 0)
(13.6399 -0.0851164 0)
(13.8452 -0.0694594 0)
(14.0104 -0.0560478 0)
(14.1413 -0.0446592 0)
(14.244 -0.0351223 0)
(14.3238 -0.0273894 0)
(14.3855 -0.0211991 0)
(14.4325 -0.0162452 0)
(14.4682 -0.0123213 0)
(14.4949 -0.00926297 0)
(14.5148 -0.0069048 0)
(14.5295 -0.00508381 0)
(14.5403 -0.00376556 0)
(14.5482 -0.00278674 0)
(14.5539 -0.00200421 0)
(14.558 -0.00143658 0)
(14.5609 -0.00102544 0)
(14.563 -0.000729756 0)
(14.5645 -0.000517538 0)
(14.5655 -0.00036374 0)
(14.5662 -0.000254094 0)
(14.5667 -0.000176968 0)
(14.5671 -0.000123049 0)
(14.5673 -8.52075e-05 0)
(14.5675 -5.85431e-05 0)
(14.5676 -3.99897e-05 0)
(14.5677 -2.72624e-05 0)
(14.5677 -1.85424e-05 0)
(14.5678 -1.24996e-05 0)
(14.5678 -8.31017e-06 0)
(14.5678 -5.47446e-06 0)
(14.5678 -3.73413e-06 0)
(14.5678 -2.5134e-06 0)
(14.5678 -1.62581e-06 0)
(14.5678 -1.18246e-06 0)
(14.5678 -9.98926e-07 0)
(14.5678 -1.57998e-06 0)
(14.5678 -1.89584e-07 0)
(14.5678 1.04567e-06 0)
(14.5678 2.39523e-07 0)
(14.5678 9.23125e-08 0)
(14.5678 1.20014e-07 0)
(14.5678 2.82222e-07 0)
(14.5678 9.82086e-08 0)
(14.5678 -1.29452e-07 0)
(14.5678 -6.15357e-08 0)
(14.5678 -6.98877e-08 0)
(14.5678 -1.36554e-09 0)
(14.5678 1.5128e-07 0)
(14.5678 1.83494e-07 0)
(14.5678 2.281e-07 0)
(14.5678 3.50697e-07 0)
(14.5678 4.72765e-07 0)
(14.5678 6.27907e-07 0)
(14.5678 9.2525e-07 0)
(14.5678 1.36922e-06 0)
(14.5678 2.06451e-06 0)
(14.5678 2.9674e-06 0)
(14.5678 4.13051e-06 0)
(14.5678 5.88696e-06 0)
(14.5678 8.44526e-06 0)
(14.5678 1.2084e-05 0)
(14.5677 1.73973e-05 0)
(14.5677 2.51589e-05 0)
(14.5676 3.64066e-05 0)
(14.5675 5.3143e-05 0)
(14.5674 7.82922e-05 0)
(14.5671 0.00011657 0)
(14.5668 0.000175223 0)
(14.5663 0.000266201 0)
(14.5655 0.000407142 0)
(14.5644 0.000625184 0)
(14.5626 0.000965573 0)
(14.5598 0.00149616 0)
(14.5556 0.00231637 0)
(14.549 0.00357557 0)
(14.5387 0.0055127 0)
(14.5228 0.00850334 0)
(14.4983 0.0129649 0)
(14.4618 0.0191828 0)
(14.4071 0.0281512 0)
(14.3207 0.0425584 0)
(14.189 0.0597713 0)
(14.0004 0.0574544 0)
(14.1287 -0.0581896 0)
(13.1106 -0.0895879 0)
(1.06072 -1.07701 0)
(4.37754 -0.802018 0)
(5.81162 -0.873433 0)
(7.28437 -0.8373 0)
(8.79905 -0.705902 0)
(10.0917 -0.60893 0)
(11.1936 -0.540539 0)
(12.1678 -0.476095 0)
(13.0152 -0.412998 0)
(13.7434 -0.355478 0)
(14.3586 -0.304052 0)
(14.8778 -0.257606 0)
(15.3096 -0.216038 0)
(15.6644 -0.179306 0)
(15.9545 -0.147225 0)
(16.1872 -0.119371 0)
(16.3728 -0.0957382 0)
(16.5187 -0.0758733 0)
(16.6326 -0.0594297 0)
(16.7207 -0.0461727 0)
(16.7884 -0.0355844 0)
(16.8396 -0.0271401 0)
(16.8781 -0.020509 0)
(16.9069 -0.015367 0)
(16.9282 -0.0114203 0)
(16.9438 -0.0083859 0)
(16.9552 -0.00618943 0)
(16.9636 -0.0045632 0)
(16.9697 -0.00327432 0)
(16.974 -0.00234253 0)
(16.977 -0.00166931 0)
(16.9792 -0.00118492 0)
(16.9807 -0.000837701 0)
(16.9818 -0.000587927 0)
(16.9825 -0.00041034 0)
(16.983 -0.000285618 0)
(16.9834 -0.000198208 0)
(16.9836 -0.000136859 0)
(16.9838 -9.3886e-05 0)
(16.9839 -6.40436e-05 0)
(16.984 -4.35689e-05 0)
(16.9841 -2.95415e-05 0)
(16.9841 -1.9931e-05 0)
(16.9841 -1.32942e-05 0)
(16.9841 -8.724e-06 0)
(16.9841 -5.88942e-06 0)
(16.9841 -3.97823e-06 0)
(16.9842 -2.60621e-06 0)
(16.9842 -1.85095e-06 0)
(16.9842 -1.53362e-06 0)
(16.9842 -2.3227e-06 0)
(16.9842 -3.40433e-07 0)
(16.9842 1.43055e-06 0)
(16.9842 3.43423e-07 0)
(16.9842 1.81771e-07 0)
(16.9842 1.40447e-07 0)
(16.9842 3.26566e-07 0)
(16.9842 9.84504e-08 0)
(16.9842 -2.44993e-07 0)
(16.9842 -1.09314e-07 0)
(16.9842 -6.54489e-08 0)
(16.9842 -3.41824e-08 0)
(16.9842 1.17778e-07 0)
(16.9842 2.05762e-07 0)
(16.9842 3.01925e-07 0)
(16.9842 5.31401e-07 0)
(16.9842 7.21242e-07 0)
(16.9842 9.46298e-07 0)
(16.9842 1.43508e-06 0)
(16.9842 2.1677e-06 0)
(16.9842 3.29599e-06 0)
(16.9841 4.78608e-06 0)
(16.9841 6.73039e-06 0)
(16.9841 9.59377e-06 0)
(16.9841 1.37588e-05 0)
(16.9841 1.97217e-05 0)
(16.984 2.83922e-05 0)
(16.984 4.10316e-05 0)
(16.9839 5.92958e-05 0)
(16.9838 8.64139e-05 0)
(16.9836 0.000127041 0)
(16.9834 0.000188338 0)
(16.9831 0.000281863 0)
(16.9825 0.00042677 0)
(16.9818 0.000651256 0)
(16.9806 0.000998642 0)
(16.9787 0.00153895 0)
(16.9759 0.00238192 0)
(16.9716 0.00369035 0)
(16.9649 0.005707 0)
(16.9545 0.00881309 0)
(16.9383 0.0135993 0)
(16.9133 0.0207929 0)
(16.8756 0.0310887 0)
(16.8186 0.046034 0)
(16.7282 0.0690801 0)
(16.5899 0.0979725 0)
(16.3683 0.115701 0)
(16.3712 0.0796284 0)
(14.7671 0.0109712 0)
(0.839647 -1.59202 0)
(4.32806 -1.28586 0)
(5.8056 -1.30774 0)
(7.29513 -1.23187 0)
(8.87738 -1.06122 0)
(10.2464 -0.924646 0)
(11.4241 -0.817554 0)
(12.4675 -0.716728 0)
(13.3739 -0.620348 0)
(14.1535 -0.532433 0)
(14.8102 -0.453396 0)
(15.3631 -0.382304 0)
(15.8198 -0.31891 0)
(16.193 -0.263267 0)
(16.4952 -0.215003 0)
(16.7366 -0.173461 0)
(16.9278 -0.138415 0)
(17.0767 -0.109266 0)
(17.1934 -0.0853668 0)
(17.2832 -0.0660951 0)
(17.3514 -0.0507339 0)
(17.4028 -0.0385541 0)
(17.4414 -0.0290457 0)
(17.4701 -0.0217041 0)
(17.4912 -0.0160885 0)
(17.5066 -0.0117835 0)
(17.5179 -0.00867643 0)
(17.5261 -0.00638239 0)
(17.532 -0.00456844 0)
(17.5362 -0.0032632 0)
(17.5392 -0.00232199 0)
(17.5413 -0.00164518 0)
(17.5428 -0.00116036 0)
(17.5438 -0.000813301 0)
(17.5445 -0.000567601 0)
(17.5451 -0.000394875 0)
(17.5454 -0.000273452 0)
(17.5456 -0.0001884 0)
(17.5458 -0.000129075 0)
(17.5459 -8.79515e-05 0)
(17.546 -5.97364e-05 0)
(17.546 -4.04058e-05 0)
(17.5461 -2.72567e-05 0)
(17.5461 -1.82144e-05 0)
(17.5461 -1.19126e-05 0)
(17.5461 -7.98587e-06 0)
(17.5461 -5.39323e-06 0)
(17.5461 -3.53744e-06 0)
(17.5461 -2.44685e-06 0)
(17.5461 -1.9039e-06 0)
(17.5461 -2.83946e-06 0)
(17.5461 -5.02684e-07 0)
(17.5461 1.63588e-06 0)
(17.5461 3.48902e-07 0)
(17.5461 2.26871e-07 0)
(17.5461 1.33085e-07 0)
(17.5461 3.57123e-07 0)
(17.5461 8.49897e-08 0)
(17.5461 -3.8632e-07 0)
(17.5461 -1.69925e-07 0)
(17.5461 -3.39199e-08 0)
(17.5461 -4.58659e-08 0)
(17.5461 4.67023e-08 0)
(17.5461 1.88913e-07 0)
(17.5461 3.58662e-07 0)
(17.5461 7.19614e-07 0)
(17.5461 9.39151e-07 0)
(17.5461 1.2216e-06 0)
(17.5461 1.95315e-06 0)
(17.5461 2.97858e-06 0)
(17.5461 4.53151e-06 0)
(17.5461 6.61813e-06 0)
(17.5461 9.36944e-06 0)
(17.5461 1.33858e-05 0)
(17.5461 1.92242e-05 0)
(17.5461 2.75871e-05 0)
(17.546 3.97164e-05 0)
(17.546 5.7376e-05 0)
(17.5459 8.283e-05 0)
(17.5458 0.000120535 0)
(17.5456 0.000176976 0)
(17.5454 0.00026165 0)
(17.5451 0.000390437 0)
(17.5445 0.000589191 0)
(17.5438 0.000896866 0)
(17.5426 0.00137351 0)
(17.5409 0.00211347 0)
(17.5382 0.00326772 0)
(17.534 0.00506306 0)
(17.5275 0.0078361 0)
(17.5175 0.0121099 0)
(17.5018 0.0186955 0)
(17.4776 0.0286608 0)
(17.441 0.0431436 0)
(17.3852 0.064222 0)
(17.2959 0.0963453 0)
(17.1584 0.139592 0)
(16.9275 0.189701 0)
(16.863 0.277208 0)
(15.1127 0.158845 0)
(0.539047 -2.04529 0)
(3.91128 -1.74952 0)
(5.19773 -1.72747 0)
(6.52926 -1.61539 0)
(8.03123 -1.41339 0)
(9.34359 -1.24272 0)
(10.4839 -1.09912 0)
(11.5059 -0.962316 0)
(12.3991 -0.832365 0)
(13.1675 -0.713345 0)
(13.8143 -0.605771 0)
(14.3574 -0.509103 0)
(14.8049 -0.423056 0)
(15.1694 -0.34779 0)
(15.463 -0.282822 0)
(15.6965 -0.227308 0)
(15.8805 -0.180674 0)
(16.0238 -0.142177 0)
(16.1347 -0.110836 0)
(16.2199 -0.0855602 0)
(16.2843 -0.0654526 0)
(16.3328 -0.0496017 0)
(16.369 -0.0372787 0)
(16.3958 -0.0277969 0)
(16.4156 -0.02056 0)
(16.4299 -0.0150222 0)
(16.4403 -0.0110422 0)
(16.4479 -0.00811147 0)
(16.4534 -0.0057917 0)
(16.4573 -0.00413221 0)
(16.46 -0.00293686 0)
(16.4619 -0.00207784 0)
(16.4633 -0.00146289 0)
(16.4642 -0.00102445 0)
(16.4649 -0.000714989 0)
(16.4653 -0.000496896 0)
(16.4656 -0.000343476 0)
(16.4658 -0.000236278 0)
(16.466 -0.000161718 0)
(16.4661 -0.000110118 0)
(16.4662 -7.47101e-05 0)
(16.4662 -5.04482e-05 0)
(16.4662 -3.39952e-05 0)
(16.4663 -2.27342e-05 0)
(16.4663 -1.48341e-05 0)
(16.4663 -9.89946e-06 0)
(16.4663 -6.67296e-06 0)
(16.4663 -4.35113e-06 0)
(16.4663 -2.92771e-06 0)
(16.4663 -2.06198e-06 0)
(16.4663 -2.91762e-06 0)
(16.4663 -6.62871e-07 0)
(16.4663 1.45482e-06 0)
(16.4663 2.02549e-07 0)
(16.4663 1.84717e-07 0)
(16.4663 8.26522e-08 0)
(16.4663 3.81417e-07 0)
(16.4663 5.56718e-08 0)
(16.4663 -5.59537e-07 0)
(16.4663 -2.52398e-07 0)
(16.4663 -1.85745e-08 0)
(16.4663 -4.6655e-08 0)
(16.4663 -3.2845e-08 0)
(16.4663 1.34149e-07 0)
(16.4663 3.86507e-07 0)
(16.4663 8.88877e-07 0)
(16.4663 1.10012e-06 0)
(16.4663 1.42533e-06 0)
(16.4663 2.42992e-06 0)
(16.4663 3.7462e-06 0)
(16.4663 5.6864e-06 0)
(16.4663 8.31297e-06 0)
(16.4663 1.1831e-05 0)
(16.4663 1.69782e-05 0)
(16.4663 2.44524e-05 0)
(16.4662 3.51263e-05 0)
(16.4662 5.05627e-05 0)
(16.4661 7.30227e-05 0)
(16.4661 0.000105342 0)
(16.466 0.000153105 0)
(16.4658 0.000224532 0)
(16.4656 0.000331457 0)
(16.4653 0.000493851 0)
(16.4648 0.000743048 0)
(16.4641 0.00112833 0)
(16.4631 0.00172584 0)
(16.4614 0.00265309 0)
(16.4589 0.00409895 0)
(16.4551 0.00634979 0)
(16.4492 0.00983188 0)
(16.44 0.0152022 0)
(16.4256 0.0234839 0)
(16.4032 0.0360847 0)
(16.3694 0.0545922 0)
(16.3178 0.0815999 0)
(16.2337 0.122599 0)
(16.1051 0.18056 0)
(15.893 0.26433 0)
(15.819 0.471858 0)
(14.3426 0.303169 0)
(0.204619 -2.39447 0)
(3.26833 -2.13695 0)
(4.19138 -2.08658 0)
(5.22532 -1.95211 0)
(6.52424 -1.73248 0)
(7.66965 -1.53621 0)
(8.67593 -1.36202 0)
(9.59657 -1.19349 0)
(10.4094 -1.03286 0)
(11.1117 -0.884798 0)
(11.7041 -0.750167 0)
(12.201 -0.629064 0)
(12.6099 -0.521357 0)
(12.9423 -0.427294 0)
(13.209 -0.346356 0)
(13.4204 -0.277548 0)
(13.5863 -0.219971 0)
(13.715 -0.172634 0)
(13.8141 -0.134262 0)
(13.8898 -0.103399 0)
(13.947 -0.0788948 0)
(13.9898 -0.0596535 0)
(14.0216 -0.0447497 0)
(14.0452 -0.0333154 0)
(14.0625 -0.0245954 0)
(14.075 -0.0179316 0)
(14.0841 -0.0131627 0)
(14.0906 -0.00965914 0)
(14.0954 -0.00688037 0)
(14.0987 -0.00490573 0)
(14.1011 -0.00348363 0)
(14.1027 -0.00246177 0)
(14.1039 -0.0017311 0)
(14.1047 -0.00121163 0)
(14.1053 -0.000845129 0)
(14.1057 -0.000586575 0)
(14.1059 -0.000404978 0)
(14.1061 -0.000278267 0)
(14.1062 -0.000190331 0)
(14.1063 -0.000129575 0)
(14.1064 -8.78375e-05 0)
(14.1064 -5.92438e-05 0)
(14.1065 -3.98665e-05 0)
(14.1065 -2.66558e-05 0)
(14.1065 -1.73574e-05 0)
(14.1065 -1.15495e-05 0)
(14.1065 -7.76213e-06 0)
(14.1065 -5.00466e-06 0)
(14.1065 -3.25847e-06 0)
(14.1065 -1.99744e-06 0)
(14.1065 -2.23324e-06 0)
(14.1065 -7.92359e-07 0)
(14.1065 5.70369e-07 0)
(14.1065 -1.15891e-07 0)
(14.1065 2.97931e-08 0)
(14.1065 -1.00947e-08 0)
(14.1065 4.17691e-07 0)
(14.1065 2.01359e-08 0)
(14.1065 -7.47955e-07 0)
(14.1065 -3.44149e-07 0)
(14.1065 -2.95129e-08 0)
(14.1065 -5.43037e-08 0)
(14.1065 -1.03281e-07 0)
(14.1065 6.71468e-08 0)
(14.1065 3.8677e-07 0)
(14.1065 1.0217e-06 0)
(14.1065 1.21014e-06 0)
(14.1065 1.56416e-06 0)
(14.1065 2.82873e-06 0)
(14.1065 4.42127e-06 0)
(14.1065 6.71133e-06 0)
(14.1065 9.79668e-06 0)
(14.1065 1.4e-05 0)
(14.1065 2.01979e-05 0)
(14.1065 2.91781e-05 0)
(14.1064 4.19676e-05 0)
(14.1064 6.03847e-05 0)
(14.1064 8.71724e-05 0)
(14.1063 0.000125717 0)
(14.1062 0.00018256 0)
(14.1061 0.000267463 0)
(14.1059 0.000394432 0)
(14.1056 0.000587056 0)
(14.1052 0.000881494 0)
(14.1046 0.00133601 0)
(14.1037 0.00204097 0)
(14.1023 0.00313512 0)
(14.1001 0.00484071 0)
(14.0968 0.00749689 0)
(14.0916 0.011611 0)
(14.0837 0.0179612 0)
(14.0712 0.0277633 0)
(14.0516 0.0427395 0)
(14.0222 0.0649125 0)
(13.9772 0.0973682 0)
(13.9017 0.14646 0)
(13.7892 0.217395 0)
(13.6183 0.327215 0)
(13.5656 0.613716 0)
(12.6209 0.403538 0)
(-0.125561 -2.61817 0)
(2.53183 -2.41407 0)
(2.99829 -2.35351 0)
(3.64288 -2.21244 0)
(4.65136 -1.98939 0)
(5.54934 -1.78079 0)
(6.34976 -1.58695 0)
(7.10438 -1.3953 0)
(7.78331 -1.2098 0)
(8.37406 -1.03667 0)
(8.8746 -0.878196 0)
(9.29535 -0.735295 0)
(9.6415 -0.60824 0)
(9.92249 -0.49735 0)
(10.1473 -0.402128 0)
(10.3248 -0.32147 0)
(10.4636 -0.2542 0)
(10.5709 -0.199048 0)
(10.6532 -0.15446 0)
(10.7157 -0.118714 0)
(10.7627 -0.0904007 0)
(10.7978 -0.0682258 0)
(10.8237 -0.051101 0)
(10.8429 -0.0379947 0)
(10.857 -0.0280095 0)
(10.8671 -0.020386 0)
(10.8746 -0.0149429 0)
(10.8797 -0.0109514 0)
(10.8835 -0.007786 0)
(10.8861 -0.00554941 0)
(10.888 -0.00393863 0)
(10.8893 -0.00278111 0)
(10.8902 -0.00195397 0)
(10.8909 -0.00136687 0)
(10.8913 -0.000952501 0)
(10.8916 -0.000660395 0)
(10.8919 -0.000455565 0)
(10.892 -0.00031275 0)
(10.8921 -0.000213828 0)
(10.8922 -0.000145578 0)
(10.8922 -9.86134e-05 0)
(10.8922 -6.64613e-05 0)
(10.8923 -4.4667e-05 0)
(10.8923 -2.98447e-05 0)
(10.8923 -1.94026e-05 0)
(10.8923 -1.2881e-05 0)
(10.8923 -8.61481e-06 0)
(10.8923 -5.47398e-06 0)
(10.8923 -3.43537e-06 0)
(10.8923 -1.75908e-06 0)
(10.8923 -7.12929e-07 0)
(10.8923 -8.72962e-07 0)
(10.8923 -1.08589e-06 0)
(10.8923 -5.63599e-07 0)
(10.8923 -2.15005e-07 0)
(10.8923 -1.50061e-07 0)
(10.8923 4.35621e-07 0)
(10.8923 -1.85923e-08 0)
(10.8923 -9.05961e-07 0)
(10.8923 -4.19872e-07 0)
(10.8923 -5.64178e-08 0)
(10.8923 -8.17562e-08 0)
(10.8923 -1.66392e-07 0)
(10.8923 5.15994e-09 0)
(10.8923 3.56983e-07 0)
(10.8923 1.0925e-06 0)
(10.8923 1.27206e-06 0)
(10.8923 1.65788e-06 0)
(10.8923 3.13221e-06 0)
(10.8923 4.95153e-06 0)
(10.8923 7.54121e-06 0)
(10.8923 1.10146e-05 0)
(10.8923 1.57981e-05 0)
(10.8923 2.29059e-05 0)
(10.8923 3.31761e-05 0)
(10.8923 4.77813e-05 0)
(10.8922 6.87207e-05 0)
(10.8922 9.9165e-05 0)
(10.8921 0.000143017 0)
(10.8921 0.000207579 0)
(10.892 0.000303895 0)
(10.8918 0.000447802 0)
(10.8916 0.000665826 0)
(10.8913 0.000998525 0)
(10.8908 0.00151134 0)
(10.89 0.0023062 0)
(10.8889 0.00354006 0)
(10.8871 0.00546298 0)
(10.8844 0.00845834 0)
(10.8803 0.0131025 0)
(10.8739 0.0202777 0)
(10.8638 0.0313633 0)
(10.8479 0.0483527 0)
(10.8243 0.0736751 0)
(10.7877 0.110879 0)
(10.7238 0.166848 0)
(10.6325 0.247877 0)
(10.5141 0.372918 0)
(10.4797 0.683486 0)
(10.1049 0.444463 0)
(-0.424135 -2.71366 0)
(1.8073 -2.5681 0)
(1.79525 -2.51206 0)
(2.01658 -2.38197 0)
(2.68332 -2.17176 0)
(3.28397 -1.96169 0)
(3.83001 -1.75737 0)
(4.37426 -1.55084 0)
(4.87935 -1.34821 0)
(5.3252 -1.15711 0)
(5.70569 -0.980554 0)
(6.02727 -0.820612 0)
(6.29208 -0.678148 0)
(6.50691 -0.553716 0)
(6.67827 -0.446929 0)
(6.81309 -0.356659 0)
(6.918 -0.281535 0)
(6.99878 -0.220062 0)
(7.06029 -0.170454 0)
(7.10674 -0.130787 0)
(7.14154 -0.0994378 0)
(7.16737 -0.0749353 0)
(7.18644 -0.0560502 0)
(7.20042 -0.0416253 0)
(7.21063 -0.0306589 0)
(7.21791 -0.0223222 0)
(7.22387 -0.0163097 0)
(7.22695 -0.0118968 0)
(7.22971 -0.00846998 0)
(7.23156 -0.00603713 0)
(7.23288 -0.00428354 0)
(7.23382 -0.00302318 0)
(7.23447 -0.00212261 0)
(7.23492 -0.0014839 0)
(7.23523 -0.00103316 0)
(7.23545 -0.000715776 0)
(7.23559 -0.000493445 0)
(7.23569 -0.000338546 0)
(7.23576 -0.000231389 0)
(7.23581 -0.000157518 0)
(7.23584 -0.000106641 0)
(7.23586 -7.18376e-05 0)
(7.23588 -4.82321e-05 0)
(7.23588 -3.22055e-05 0)
(7.23589 -2.10067e-05 0)
(7.2359 -1.38578e-05 0)
(7.2359 -9.15139e-06 0)
(7.2359 -5.74539e-06 0)
(7.2359 -3.44401e-06 0)
(7.2359 -1.49971e-06 0)
(7.2359 7.27004e-07 0)
(7.23589 -9.10531e-07 0)
(7.2359 -2.59496e-06 0)
(7.2359 -9.62129e-07 0)
(7.2359 -4.8195e-07 0)
(7.2359 -3.38187e-07 0)
(7.2359 2.05423e-07 0)
(7.23591 -1.19944e-07 0)
(7.2359 -8.17488e-07 0)
(7.2359 -3.90647e-07 0)
(7.2359 -7.98123e-08 0)
(7.2359 -1.23773e-07 0)
(7.2359 -2.21043e-07 0)
(7.23591 -5.45795e-08 0)
(7.23591 2.89758e-07 0)
(7.23591 9.99636e-07 0)
(7.23591 1.27984e-06 0)
(7.23591 1.80104e-06 0)
(7.23591 3.3413e-06 0)
(7.23591 5.30306e-06 0)
(7.2359 8.08567e-06 0)
(7.2359 1.188e-05 0)
(7.2359 1.71909e-05 0)
(7.23589 2.5011e-05 0)
(7.23589 3.62538e-05 0)
(7.23587 5.22687e-05 0)
(7.23586 7.51748e-05 0)
(7.23583 0.000108416 0)
(7.2358 0.000156466 0)
(7.23574 0.000227099 0)
(7.23567 0.000332212 0)
(7.23555 0.000489215 0)
(7.23539 0.000726777 0)
(7.23515 0.00108899 0)
(7.23479 0.00164662 0)
(7.23425 0.0025102 0)
(7.23343 0.00385077 0)
(7.23218 0.00593955 0)
(7.23026 0.00919382 0)
(7.22732 0.014244 0)
(7.22276 0.0220552 0)
(7.21545 0.0341335 0)
(7.20385 0.0526853 0)
(7.18692 0.0805042 0)
(7.16045 0.121565 0)
(7.11042 0.182924 0)
(7.04352 0.270985 0)
(6.97872 0.402201 0)
(6.9388 0.692297 0)
(6.98257 0.435437 0)
(-0.674446 -2.69232 0)
(1.16704 -2.60315 0)
(0.706781 -2.56176 0)
(0.515975 -2.45316 0)
(0.8301 -2.26735 0)
(1.1145 -2.06979 0)
(1.38371 -1.86756 0)
(1.69167 -1.65704 0)
(1.99733 -1.4458 0)
(2.27531 -1.24296 0)
(2.51637 -1.05383 0)
(2.72244 -0.881651 0)
(2.89253 -0.727991 0)
(3.03053 -0.593701 0)
(3.14012 -0.478501 0)
(3.22579 -0.381273 0)
(3.29194 -0.30051 0)
(3.34246 -0.234533 0)
(3.38054 -0.181371 0)
(3.40899 -0.138959 0)
(3.43005 -0.10551 0)
(3.44556 -0.0794144 0)
(3.45692 -0.0593293 0)
(3.46514 -0.0440135 0)
(3.47113 -0.0324037 0)
(3.47533 -0.0236817 0)
(3.48014 -0.0171934 0)
(3.48051 -0.0124032 0)
(3.48207 -0.00889445 0)
(3.48308 -0.00634505 0)
(3.48381 -0.00450124 0)
(3.48432 -0.00317544 0)
(3.48468 -0.00222849 0)
(3.48493 -0.00155708 0)
(3.4851 -0.00108333 0)
(3.48521 -0.00075011 0)
(3.48529 -0.000516862 0)
(3.48534 -0.00035448 0)
(3.48538 -0.000242199 0)
(3.48541 -0.000164821 0)
(3.48542 -0.000111547 0)
(3.48543 -7.51209e-05 0)
(3.48544 -5.03986e-05 0)
(3.48545 -3.36447e-05 0)
(3.48545 -2.22168e-05 0)
(3.48545 -1.44436e-05 0)
(3.48545 -9.29791e-06 0)
(3.48545 -5.82027e-06 0)
(3.48545 -3.27108e-06 0)
(3.48545 -1.34342e-06 0)
(3.48545 1.13052e-06 0)
(3.48545 -9.4761e-07 0)
(3.48545 -3.00764e-06 0)
(3.48545 -1.13766e-06 0)
(3.48545 -7.00242e-07 0)
(3.48545 -5.57529e-07 0)
(3.48545 -5.04783e-07 0)
(3.48546 -3.62185e-07 0)
(3.48546 -2.69717e-07 0)
(3.48546 -1.73492e-07 0)
(3.48546 -8.26569e-08 0)
(3.48546 -1.75255e-07 0)
(3.48546 -2.72598e-07 0)
(3.48546 -1.21456e-07 0)
(3.48546 1.78597e-07 0)
(3.48546 6.42436e-07 0)
(3.48546 1.21978e-06 0)
(3.48546 2.08159e-06 0)
(3.48546 3.45316e-06 0)
(3.48546 5.45352e-06 0)
(3.48546 8.25856e-06 0)
(3.48546 1.22938e-05 0)
(3.48546 1.81372e-05 0)
(3.48545 2.64211e-05 0)
(3.48545 3.82218e-05 0)
(3.48544 5.51486e-05 0)
(3.48543 7.93525e-05 0)
(3.48542 0.000114316 0)
(3.4854 0.000165288 0)
(3.48537 0.000240072 0)
(3.48532 0.0003508 0)
(3.48526 0.000516325 0)
(3.48516 0.000766545 0)
(3.48502 0.00114783 0)
(3.48482 0.00173426 0)
(3.48451 0.00264172 0)
(3.48405 0.0040503 0)
(3.48334 0.00624465 0)
(3.48226 0.00966383 0)
(3.48062 0.0149746 0)
(3.47808 0.0231987 0)
(3.47388 0.0359261 0)
(3.46705 0.0555073 0)
(3.45754 0.0850396 0)
(3.44224 0.128876 0)
(3.40795 0.193975 0)
(3.36744 0.28637 0)
(3.35314 0.418762 0)
(3.28619 0.668359 0)
(3.51607 0.400795 0)
(-0.869624 -2.57391 0)
(0.650304 -2.53341 0)
(-0.194215 -2.51259 0)
(-0.753137 -2.43289 0)
(-0.772439 -2.27959 0)
(-0.79833 -2.10225 0)
(-0.809674 -1.91028 0)
(-0.746071 -1.70407 0)
(-0.650181 -1.49297 0)
(-0.551622 -1.28709 0)
(-0.460892 -1.0929 0)
(-0.379442 -0.914815 0)
(-0.31215 -0.755308 0)
(-0.257327 -0.615688 0)
(-0.214462 -0.49581 0)
(-0.181739 -0.394676 0)
(-0.157212 -0.31075 0)
(-0.139036 -0.242251 0)
(-0.125937 -0.187103 0)
(-0.116622 -0.143177 0)
(-0.110094 -0.108596 0)
(-0.105481 -0.0816648 0)
(-0.102212 -0.0609503 0)
(-0.100029 -0.0451736 0)
(-0.0984897 -0.0332494 0)
(-0.0975358 -0.0243883 0)
(-0.0961506 -0.0176058 0)
(-0.0963843 -0.0125688 0)
(-0.0960158 -0.00907382 0)
(-0.0958683 -0.00647947 0)
(-0.0957481 -0.00459603 0)
(-0.0956683 -0.00324099 0)
(-0.0956141 -0.00227389 0)
(-0.0955785 -0.00158814 0)
(-0.0955555 -0.0011043 0)
(-0.0955417 -0.000764288 0)
(-0.0955327 -0.000526453 0)
(-0.0955269 -0.000360974 0)
(-0.0955233 -0.00024656 0)
(-0.0955208 -0.000167722 0)
(-0.0955194 -0.000113482 0)
(-0.0955185 -7.64058e-05 0)
(-0.0955179 -5.12296e-05 0)
(-0.0955175 -3.41937e-05 0)
(-0.0955176 -2.28374e-05 0)
(-0.0955158 -1.46494e-05 0)
(-0.0955177 -9.19956e-06 0)
(-0.0955169 -5.74736e-06 0)
(-0.0955182 -3.0533e-06 0)
(-0.0955186 -1.27686e-06 0)
(-0.0955165 8.69301e-07 0)
(-0.0955189 -9.56945e-07 0)
(-0.0955166 -2.7059e-06 0)
(-0.0955187 -1.14767e-06 0)
(-0.095518 -8.37377e-07 0)
(-0.0955172 -7.47684e-07 0)
(-0.0955171 -1.2109e-06 0)
(-0.0955135 -6.10314e-07 0)
(-0.0955156 2.81127e-07 0)
(-0.0955158 5.06646e-08 0)
(-0.0955156 -9.27333e-08 0)
(-0.0955153 -2.36662e-07 0)
(-0.0955148 -3.30258e-07 0)
(-0.0955144 -2.0197e-07 0)
(-0.0955138 4.18231e-08 0)
(-0.0955133 2.40842e-07 0)
(-0.0955111 1.09787e-06 0)
(-0.0955119 2.28109e-06 0)
(-0.0955111 3.44424e-06 0)
(-0.0955105 5.41654e-06 0)
(-0.09551 8.16173e-06 0)
(-0.0955088 1.23307e-05 0)
(-0.0955086 1.85443e-05 0)
(-0.095509 2.70538e-05 0)
(-0.0955094 3.90762e-05 0)
(-0.0955103 5.64324e-05 0)
(-0.0955121 8.12667e-05 0)
(-0.0955154 0.000116997 0)
(-0.0955192 0.000169487 0)
(-0.0955276 0.00024637 0)
(-0.0955382 0.000359681 0)
(-0.0955538 0.000529204 0)
(-0.0955759 0.00078528 0)
(-0.0956074 0.00117531 0)
(-0.0956519 0.00177471 0)
(-0.0957142 0.00270164 0)
(-0.0958034 0.00414027 0)
(-0.0959358 0.00638106 0)
(-0.0961312 0.00987302 0)
(-0.0964023 0.0153013 0)
(-0.0968227 0.0237179 0)
(-0.0977531 0.0367542 0)
(-0.0995252 0.0568392 0)
(-0.101221 0.0872971 0)
(-0.104714 0.132789 0)
(-0.121788 0.200037 0)
(-0.134441 0.29466 0)
(-0.101451 0.42613 0)
(-0.201189 0.636489 0)
(0.0983481 0.363523 0)
(-1.0107 -2.38151 0)
(0.268434 -2.3797 0)
(-0.87972 -2.37971 0)
(-1.74457 -2.33078 0)
(-2.05664 -2.2137 0)
(-2.36886 -2.06325 0)
(-2.64576 -1.88956 0)
(-2.82027 -1.69573 0)
(-2.93353 -1.4921 0)
(-3.01637 -1.28981 0)
(-3.07936 -1.09687 0)
(-3.12681 -0.918651 0)
(-3.16485 -0.758458 0)
(-3.19598 -0.618027 0)
(-3.22209 -0.497352 0)
(-3.24406 -0.395572 0)
(-3.26247 -0.311189 0)
(-3.27749 -0.24236 0)
(-3.29006 -0.186973 0)
(-3.30036 -0.142915 0)
(-3.30875 -0.108297 0)
(-3.31525 -0.0813865 0)
(-3.32026 -0.0606937 0)
(-3.32415 -0.0449435 0)
(-3.32715 -0.0330666 0)
(-3.32946 -0.0242665 0)
(-3.33089 -0.0174828 0)
(-3.33239 -0.012438 0)
(-3.33323 -0.00898669 0)
(-3.33394 -0.00641859 0)
(-3.33443 -0.0045521 0)
(-3.33479 -0.00320916 0)
(-3.33504 -0.00225114 0)
(-3.33521 -0.00157179 0)
(-3.33534 -0.00109248 0)
(-3.33542 -0.000755826 0)
(-3.33548 -0.000520498 0)
(-3.33553 -0.00035683 0)
(-3.33555 -0.000243675 0)
(-3.33557 -0.000165702 0)
(-3.33559 -0.00011208 0)
(-3.3356 -7.5439e-05 0)
(-3.3356 -5.05526e-05 0)
(-3.33561 -3.37233e-05 0)
(-3.33561 -2.25653e-05 0)
(-3.33561 -1.44111e-05 0)
(-3.33561 -8.94888e-06 0)
(-3.33561 -5.53695e-06 0)
(-3.33562 -2.88622e-06 0)
(-3.33562 -1.24049e-06 0)
(-3.33561 6.06301e-07 0)
(-3.33562 -8.85342e-07 0)
(-3.33561 -2.33917e-06 0)
(-3.33562 -1.09701e-06 0)
(-3.33562 -8.87964e-07 0)
(-3.33562 -8.5358e-07 0)
(-3.33562 -1.42374e-06 0)
(-3.33561 -7.0736e-07 0)
(-3.33562 3.91023e-07 0)
(-3.33561 9.49876e-08 0)
(-3.33561 -1.39292e-07 0)
(-3.33561 -3.05992e-07 0)
(-3.33561 -3.96599e-07 0)
(-3.33561 -2.9526e-07 0)
(-3.33561 -9.96026e-08 0)
(-3.33561 1.35113e-08 0)
(-3.33561 9.26783e-07 0)
(-3.33561 2.18067e-06 0)
(-3.33561 3.27305e-06 0)
(-3.33561 5.18309e-06 0)
(-3.33561 7.8679e-06 0)
(-3.3356 1.20208e-05 0)
(-3.3356 1.82496e-05 0)
(-3.3356 2.67207e-05 0)
(-3.3356 3.86597e-05 0)
(-3.33559 5.5911e-05 0)
(-3.33558 8.06167e-05 0)
(-3.33558 0.00011614 0)
(-3.33556 0.000168394 0)
(-3.33555 0.000244879 0)
(-3.33552 0.000357432 0)
(-3.33549 0.000525786 0)
(-3.33544 0.000779932 0)
(-3.33536 0.00116686 0)
(-3.33524 0.00176111 0)
(-3.33505 0.00267954 0)
(-3.33476 0.00410478 0)
(-3.33431 0.00632439 0)
(-3.33361 0.00978383 0)
(-3.3325 0.0151657 0)
(-3.33077 0.0235202 0)
(-3.32837 0.0364728 0)
(-3.32498 0.05646 0)
(-3.31871 0.0869263 0)
(-3.31007 0.132712 0)
(-3.30895 0.200262 0)
(-3.29252 0.294927 0)
(-3.21245 0.424041 0)
(-3.33704 0.604547 0)
(-2.9708 0.331611 0)
(-1.1038 -2.13777 0)
(0.0134872 -2.16376 0)
(-1.35599 -2.18181 0)
(-2.45815 -2.16137 0)
(-3.01493 -2.07963 0)
(-3.57406 -1.95862 0)
(-4.09047 -1.80783 0)
(-4.48626 -1.63227 0)
(-4.79856 -1.44276 0)
(-5.05651 -1.25095 0)
(-5.26961 -1.06582 0)
(-5.44356 -0.893516 0)
(-5.58589 -0.737976 0)
(-5.70208 -0.601296 0)
(-5.79653 -0.483711 0)
(-5.87271 -0.384512 0)
(-5.93363 -0.302307 0)
(-5.98181 -0.235273 0)
(-6.01974 -0.181338 0)
(-6.04931 -0.13848 0)
(-6.07215 -0.104857 0)
(-6.08956 -0.0787611 0)
(-6.10272 -0.0587031 0)
(-6.11253 -0.0434355 0)
(-6.11997 -0.0319378 0)
(-6.12549 -0.0234173 0)
(-6.12942 -0.0168693 0)
(-6.13239 -0.0120048 0)
(-6.13439 -0.00865696 0)
(-6.13593 -0.00618003 0)
(-6.13704 -0.0043819 0)
(-6.13781 -0.00308914 0)
(-6.13835 -0.00216667 0)
(-6.13873 -0.0015125 0)
(-6.139 -0.00105099 0)
(-6.13919 -0.00072693 0)