/*--------------------------------*- C++ -*----------------------------------*\
| =========                 |                                                 |
| \\      /  F ield         | foam-extend: Open Source CFD                    |
|  \\    /   O peration     | Version:     5.0                                |
|   \\  /    A nd           | Web:         http://www.foam-extend.org         |
|    \\/     M anipulation  |                                                 |
\*---------------------------------------------------------------------------*/
FoamFile
{
    version     2.0;
    format      ascii;
    class       volVectorField;
    location    "0.055";
    object      currentDensity;
}
// * * * * * * * * * * * * * * * * * * * * * * * * * * * * * * * * * * * * * //

dimensions      [0 -2 0 0 0 1 0];

internalField   nonuniform List<vector> 
4000
(
(0 0 -170.183)
(0 0 -365.107)
(0 0 -484.593)
(0 0 -589.558)
(0 0 -771.788)
(0 0 -924.151)
(0 0 -990.527)
(0 0 -765.56)
(0 0 -923.379)
(0 0 -1093.63)
(0 0 -1078.61)
(0 0 -1122.23)
(0 0 -1284.34)
(0 0 -1506.99)
(0 0 -1676.91)
(0 0 -1587.44)
(0 0 -1515.48)
(0 0 -1472.93)
(0 0 -1517.9)
(0 0 -1544.52)
(0 0 -1473.97)
(0 0 -1424.59)
(0 0 -1484.24)
(0 0 -1363.95)
(0 0 -1498.29)
(0 0 -1511.6)
(0 0 -1490.54)
(0 0 -970.976)
(0 0 -1056.65)
(0 0 -1217.83)
(0 0 -1240.47)
(0 0 -1101.92)
(0 0 -1026.2)
(0 0 -1033.83)
(0 0 -1032.12)
(0 0 -1075.56)
(0 0 -967.308)
(0 0 -849.821)
(0 0 -787.988)
(0 0 -784.367)
(0 0 -952.311)
(0 0 -471.399)
(0 0 -427.863)
(0 0 -296.039)
(0 0 -332.278)
(0 0 -430.067)
(0 0 -554.599)
(0 0 -540.039)
(0 0 -173.519)
(0 0 -107.111)
(0 0 -184.515)
(0 0 -140.965)
(0 0 -277.837)
(0 0 -210.99)
(0 0 -170.473)
(0 0 -204.552)
(0 0 -309.693)
(0 0 -204.544)
(0 0 -12.3135)
(0 0 -113.026)
(0 0 -42.733)
(0 0 42.8786)
(0 0 -60.3663)
(0 0 -384.123)
(0 0 -169.902)
(0 0 -210.391)
(0 0 -83.3345)
(0 0 -142.737)
(0 0 -6.54814)
(0 0 32.2338)
(0 0 -10.7157)
(0 0 -11.68)
(0 0 -44.1138)
(0 0 -232.316)
(0 0 -300.197)
(0 0 -115.43)
(0 0 72.753)
(0 0 200.099)
(0 0 170.778)
(0 0 501.302)
(0 0 351.598)
(0 0 283.497)
(0 0 118.332)
(0 0 -20.1303)
(0 0 -58.042)
(0 0 423.77)
(0 0 197.722)
(0 0 329.616)
(0 0 169.349)
(0 0 399.436)
(0 0 38.0122)
(0 0 70.7181)
(0 0 42.312)
(0 0 -9.06197)
(0 0 219.894)
(0 0 402.095)
(0 0 1069.68)
(0 0 992.483)
(0 0 1149.56)
(0 0 1208.92)
(0 0 -402.375)
(0 0 -818.701)
(0 0 -1099.17)
(0 0 -1200.8)
(0 0 -1498.97)
(0 0 -1832.01)
(0 0 -2009.5)
(0 0 -1432.84)
(0 0 -1908.44)
(0 0 -2152.73)
(0 0 -1741.44)
(0 0 -2198.37)
(0 0 -2519.19)
(0 0 -2921.14)
(0 0 -3256.27)
(0 0 -2728.3)
(0 0 -2885.29)
(0 0 -3028.57)
(0 0 -2768.6)
(0 0 -3198.61)
(0 0 -3178.1)
(0 0 -3100.34)
(0 0 -2650.69)
(0 0 -2275.18)
(0 0 -2757.69)
(0 0 -2703.96)
(0 0 -2717.46)
(0 0 -1836.81)
(0 0 -2118.92)
(0 0 -2406.64)
(0 0 -1889.96)
(0 0 -1708.75)
(0 0 -2037.74)
(0 0 -2072.74)
(0 0 -1504.92)
(0 0 -1977.38)
(0 0 -1914.51)
(0 0 -1853.21)
(0 0 -1633.64)
(0 0 -1096.55)
(0 0 -1320.26)
(0 0 -623.005)
(0 0 -807.275)
(0 0 -736.289)
(0 0 -851.718)
(0 0 -1099.31)
(0 0 -1191.57)
(0 0 -525.217)
(0 0 -245.47)
(0 0 -350.262)
(0 0 -526.832)
(0 0 50.6231)
(0 0 -526.666)
(0 0 -617.425)
(0 0 -668.764)
(0 0 -820.291)
(0 0 -812.821)
(0 0 -146.712)
(0 0 249.515)
(0 0 -88.9057)
(0 0 -215.302)
(0 0 -223.416)
(0 0 -340.124)
(0 0 -720.086)
(0 0 -102.127)
(0 0 -419.123)
(0 0 -465.308)
(0 0 -643.728)
(0 0 -530.312)
(0 0 113.371)
(0 0 -255.755)
(0 0 -394.751)
(0 0 -522.473)
(0 0 -652.901)
(0 0 -91.9035)
(0 0 208.819)
(0 0 -130.041)
(0 0 -192.739)
(0 0 51.339)
(0 0 679.655)
(0 0 904.89)
(0 0 357.504)
(0 0 5.29006)
(0 0 -260.728)
(0 0 -444.534)
(0 0 455.245)
(0 0 33.7432)
(0 0 -10.5965)
(0 0 -146.187)
(0 0 439.903)
(0 0 -95.8846)
(0 0 -233.175)
(0 0 -314.862)
(0 0 -255.262)
(0 0 637.166)
(0 0 943.952)
(0 0 1721.08)
(0 0 1522.94)
(0 0 1758.59)
(0 0 1712.67)
(0 0 -506.035)
(0 0 -986.168)
(0 0 -1317.81)
(0 0 -1345.12)
(0 0 -1393.74)
(0 0 -1780.32)
(0 0 -2057.74)
(0 0 -2161.66)
(0 0 -2407.1)
(0 0 -1824.33)
(0 0 -2285.28)
(0 0 -2610.53)
(0 0 -2788.74)
(0 0 -3095.9)
(0 0 -3321.25)
(0 0 -2899.27)
(0 0 -2433.99)
(0 0 -3031.33)
(0 0 -3533.05)
(0 0 -3757.41)
(0 0 -3691.66)
(0 0 -3728.87)
(0 0 -3112.64)
(0 0 -2599.27)
(0 0 -2930.86)
(0 0 -3050.15)
(0 0 -2239.1)
(0 0 -2392.7)
(0 0 -2496.55)
(0 0 -2708)
(0 0 -1943.14)
(0 0 -2304.25)
(0 0 -2269.83)
(0 0 -2354.59)
(0 0 -1559.06)
(0 0 -2022.45)
(0 0 -2167.81)
(0 0 -2034.37)
(0 0 -1251.69)
(0 0 -1524.9)
(0 0 -904.158)
(0 0 -223.309)
(0 0 -620.383)
(0 0 -718.862)
(0 0 -990.465)
(0 0 -1322.55)
(0 0 -962.909)
(0 0 -257.499)
(0 0 164.606)
(0 0 -300.434)
(0 0 -635.147)
(0 0 116.637)
(0 0 -481.024)
(0 0 -760.012)
(0 0 -943.452)
(0 0 -1246.66)
(0 0 -832.345)
(0 0 -240.319)
(0 0 103.298)
(0 0 289.442)
(0 0 -111.74)
(0 0 -397.791)
(0 0 -676.976)
(0 0 -434.708)
(0 0 108.327)
(0 0 -346.767)
(0 0 -618.812)
(0 0 -851.23)
(0 0 -308.617)
(0 0 -621.251)
(0 0 -708.677)
(0 0 -865.72)
(0 0 -1009.3)
(0 0 -635.54)
(0 0 -50.7856)
(0 0 -473.077)
(0 0 -671.76)
(0 0 -699.482)
(0 0 -445.857)
(0 0 163.05)
(0 0 -22.5307)
(0 0 -249.041)
(0 0 -544.043)
(0 0 -68.9293)
(0 0 -392.963)
(0 0 311.267)
(0 0 -191.599)
(0 0 -426.189)
(0 0 -660.06)
(0 0 -12.797)
(0 0 -364.643)
(0 0 -524.178)
(0 0 -505.124)
(0 0 373.385)
(0 0 902.163)
(0 0 1454.19)
(0 0 1097.17)
(0 0 1124.83)
(0 0 2211.84)
(0 0 1792.75)
(0 0 -444.017)
(0 0 -913.984)
(0 0 -1225.07)
(0 0 -1293.3)
(0 0 -1571.5)
(0 0 -1117.73)
(0 0 -1658.53)
(0 0 -2092.74)
(0 0 -2400.66)
(0 0 -1711.08)
(0 0 -2377.36)
(0 0 -2550.13)
(0 0 -2131.5)
(0 0 -2645.08)
(0 0 -2138.06)
(0 0 -1928.01)
(0 0 -2597.34)
(0 0 -3184.73)
(0 0 -3614.11)
(0 0 -3813.65)
(0 0 -3827.71)
(0 0 -3951.37)
(0 0 -2999.54)
(0 0 -3519.09)
(0 0 -3672.36)
(0 0 -2758.87)
(0 0 -2119.25)
(0 0 -2605.4)
(0 0 -2801.01)
(0 0 -2592.75)
(0 0 -1777.84)
(0 0 -2320.3)
(0 0 -2496.32)
(0 0 -1831.68)
(0 0 -1436.66)
(0 0 -1934.04)
(0 0 -2062.05)
(0 0 -1511.66)
(0 0 -1648.75)
(0 0 -969.638)
(0 0 -519.355)
(0 0 -25.5141)
(0 0 -430.486)
(0 0 -607.359)
(0 0 -934.834)
(0 0 -1226.36)
(0 0 -579.2)
(0 0 -13.1187)
(0 0 -477.688)
(0 0 -601.907)
(0 0 -755.496)
(0 0 96.7082)
(0 0 -496.592)
(0 0 -913.264)
(0 0 -1169.23)
(0 0 -1353.91)
(0 0 -1121.28)
(0 0 -425.232)
(0 0 -894.34)
(0 0 -1037.24)
(0 0 -203.954)
(0 0 -573.159)
(0 0 -806.675)
(0 0 -330.636)
(0 0 260.386)
(0 0 -177.911)
(0 0 -456.502)
(0 0 -794.735)
(0 0 -1042.41)
(0 0 -1214.25)
(0 0 -518.118)
(0 0 -903.289)
(0 0 -1154.89)
(0 0 -550.305)
(0 0 -1.58184)
(0 0 -618.97)
(0 0 -811.751)
(0 0 -809.004)
(0 0 -1004.57)
(0 0 -1024)
(0 0 -71.5009)
(0 0 -458.707)
(0 0 -349.742)
(0 0 -524.429)
(0 0 156.8)
(0 0 -230.078)
(0 0 -597.659)
(0 0 -714.52)
(0 0 -875.991)
(0 0 -976.344)
(0 0 -235.412)
(0 0 -411.687)
(0 0 317.316)
(0 0 970.635)
(0 0 532.671)
(0 0 436.197)
(0 0 362.073)
(0 0 1028.74)
(0 0 1471.97)
(0 0 1497.28)
(0 0 -259.001)
(0 0 -698.369)
(0 0 -1081.43)
(0 0 -1236.6)
(0 0 -1086.45)
(0 0 -860.636)
(0 0 -1325.02)
(0 0 -1813.08)
(0 0 -2063.79)
(0 0 -1518.25)
(0 0 -2166.29)
(0 0 -1770.3)
(0 0 -2164.96)
(0 0 -1637.61)
(0 0 -1461.35)
(0 0 -2227.2)
(0 0 -2880.1)
(0 0 -3393.42)
(0 0 -2816.27)
(0 0 -3415.83)
(0 0 -3795.24)
(0 0 -4004.19)
(0 0 -3105.59)
(0 0 -3592.3)
(0 0 -3697.57)
(0 0 -2833.3)
(0 0 -3092.33)
(0 0 -3167.2)
(0 0 -3196.12)
(0 0 -2231.99)
(0 0 -1545.88)
(0 0 -1972.08)
(0 0 -2267.71)
(0 0 -2405.4)
(0 0 -2527.77)
(0 0 -2476.94)
(0 0 -1405.35)
(0 0 -1595.82)
(0 0 -1698.35)
(0 0 -854.507)
(0 0 -382.106)
(0 0 -486.492)
(0 0 -607.668)
(0 0 83.6642)
(0 0 -546.12)
(0 0 -831.003)
(0 0 -736.904)
(0 0 -46.6869)
(0 0 -663.86)
(0 0 -865.762)
(0 0 -210.213)
(0 0 178.811)
(0 0 -434.016)
(0 0 -914.193)
(0 0 -1254.77)
(0 0 -1041.45)
(0 0 -503.824)
(0 0 -1027.31)
(0 0 -1303.57)
(0 0 -1364.41)
(0 0 -1304.21)
(0 0 -1196.48)
(0 0 -390.155)
(0 0 -154.3)
(0 0 267.4)
(0 0 522.907)
(0 0 -35.8267)
(0 0 -590.313)
(0 0 -997.956)
(0 0 -1266.62)
(0 0 -1335.26)
(0 0 -698.587)
(0 0 -1036.05)
(0 0 -843.948)
(0 0 -148.388)
(0 0 -551.65)
(0 0 -766.573)
(0 0 -327.259)
(0 0 -563.408)
(0 0 -911.272)
(0 0 -99.6806)
(0 0 -628.241)
(0 0 42.9097)
(0 0 266.435)
(0 0 -307.02)
(0 0 -168.222)
(0 0 -451.225)
(0 0 -669.024)
(0 0 -897.879)
(0 0 -292.446)
(0 0 -607.701)
(0 0 223.376)
(0 0 7.7092)
(0 0 853.334)
(0 0 396.281)
(0 0 174.189)
(0 0 130.394)
(0 0 998.698)
(0 0 1282.45)
(0 0 2117.73)
(0 0 -23.3305)
(0 0 -412.039)
(0 0 -845.723)
(0 0 -1136.63)
(0 0 -1363.84)
(0 0 -1035.93)
(0 0 -800.805)
(0 0 -1485.4)
(0 0 -1393.92)
(0 0 -1096.05)
(0 0 -1841.89)
(0 0 -2073.16)
(0 0 -1438.33)
(0 0 -1086.53)
(0 0 -2058.33)
(0 0 -2647.57)
(0 0 -3137.06)
(0 0 -3497.16)
(0 0 -2775.13)
(0 0 -3366)
(0 0 -3764.15)
(0 0 -4034.25)
(0 0 -3939.49)
(0 0 -3138.17)
(0 0 -2638.65)
(0 0 -3052.68)
(0 0 -3396.56)
(0 0 -3475.46)
(0 0 -3273.11)
(0 0 -2173.34)
(0 0 -1471.61)
(0 0 -1161.05)
(0 0 -1654.08)
(0 0 -2035.97)
(0 0 -2278.87)
(0 0 -1558.02)
(0 0 -814.037)
(0 0 -1091.16)
(0 0 -1364.33)
(0 0 -572.008)
(0 0 -304.169)
(0 0 -861.958)
(0 0 -207.425)
(0 0 -458.844)
(0 0 -298.866)
(0 0 136.839)
(0 0 -512.691)
(0 0 -78.6571)
(0 0 -740.164)
(0 0 -735.455)
(0 0 -951.021)
(0 0 -938.353)
(0 0 -356.88)
(0 0 -798.077)
(0 0 -1109.46)
(0 0 -308.588)
(0 0 -798.514)
(0 0 -1314.65)
(0 0 -1652.03)
(0 0 -743.854)
(0 0 -1189.51)
(0 0 -1263.27)
(0 0 -437.404)
(0 0 82.4945)
(0 0 -478.15)
(0 0 -626.434)
(0 0 123.351)
(0 0 -352.598)
(0 0 -821.916)
(0 0 -1139.33)
(0 0 -1285.61)
(0 0 -1407.09)
(0 0 -719.627)
(0 0 -1042.24)
(0 0 -253.565)
(0 0 318.887)
(0 0 -263.319)
(0 0 -562.876)
(0 0 2.51875)
(0 0 -427.579)
(0 0 -648.351)
(0 0 -905.903)
(0 0 -29.8491)
(0 0 -470.356)
(0 0 -809.189)
(0 0 -920.745)
(0 0 70.1815)
(0 0 -149.875)
(0 0 -456.566)
(0 0 179.228)
(0 0 -314.031)
(0 0 58.8168)
(0 0 743.145)
(0 0 359.158)
(0 0 151.691)
(0 0 57.7436)
(0 0 148.318)
(0 0 571.851)
(0 0 1101.75)
(0 0 2381.73)
(0 0 86.7262)
(0 0 -100.321)
(0 0 -615.625)
(0 0 -832.63)
(0 0 -1240.03)
(0 0 -1468.36)
(0 0 -1095.33)
(0 0 -1540.96)
(0 0 -1893.05)
(0 0 -1297.81)
(0 0 -1229.09)
(0 0 -1792.61)
(0 0 -1347.38)
(0 0 -1089.09)
(0 0 -2213.18)
(0 0 -2824.47)
(0 0 -3274.81)
(0 0 -3462.84)
(0 0 -2900.27)
(0 0 -3394.44)
(0 0 -3533.83)
(0 0 -3832.07)
(0 0 -4000.2)
(0 0 -3189.69)
(0 0 -2559.47)
(0 0 -2962.4)
(0 0 -3325.05)
(0 0 -3417.07)
(0 0 -2421.05)
(0 0 -1744.16)
(0 0 -1724.42)
(0 0 -2067.5)
(0 0 -1398.32)
(0 0 -998.986)
(0 0 -1113.21)
(0 0 -1380.87)
(0 0 -673.069)
(0 0 -562.818)
(0 0 -1077.36)
(0 0 -427.655)
(0 0 -310.225)
(0 0 -955.327)
(0 0 -1036.53)
(0 0 -1077.43)
(0 0 -327.738)
(0 0 248.135)
(0 0 -435.911)
(0 0 -723.994)
(0 0 -1023.28)
(0 0 -978.542)
(0 0 -1112.94)
(0 0 -995.892)
(0 0 -1185.7)
(0 0 -345.808)
(0 0 -821.257)
(0 0 -156.448)
(0 0 -804.101)
(0 0 -1303.05)
(0 0 -1629.6)
(0 0 -575.14)
(0 0 -1020.84)
(0 0 -1087.72)
(0 0 -315.875)
(0 0 193.732)
(0 0 -525.245)
(0 0 -897.496)
(0 0 -419.853)
(0 0 196.15)
(0 0 -418.873)
(0 0 -877.022)
(0 0 -1165.11)
(0 0 -1254.34)
(0 0 -1253.97)
(0 0 -567.943)
(0 0 -272.649)
(0 0 323.473)
(0 0 -7.85657)
(0 0 -435.093)
(0 0 -647.459)
(0 0 117.635)
(0 0 -191.668)
(0 0 -587.276)
(0 0 205.148)
(0 0 -355.239)
(0 0 -717.433)
(0 0 -776.398)
(0 0 246.592)
(0 0 -50.1457)
(0 0 421.962)
(0 0 861.886)
(0 0 322.555)
(0 0 947.406)
(0 0 528.735)
(0 0 285.024)
(0 0 161.405)
(0 0 162.729)
(0 0 1125.53)
(0 0 1033.9)
(0 0 1471.11)
(0 0 2472.81)
(0 0 102.809)
(0 0 -48.9619)
(0 0 -391.228)
(0 0 -384.3)
(0 0 -822.207)
(0 0 -1274.76)
(0 0 -1425.28)
(0 0 -1421.76)
(0 0 -1651.01)
(0 0 -1771.66)
(0 0 -1540.79)
(0 0 -1918.94)
(0 0 -1963.53)
(0 0 -1658.45)
(0 0 -2338.4)
(0 0 -2853.3)
(0 0 -3195.32)
(0 0 -3552.81)
(0 0 -3457.79)
(0 0 -2935.51)
(0 0 -3399.9)
(0 0 -3658.98)
(0 0 -3734.1)
(0 0 -3794.05)
(0 0 -2846.31)
(0 0 -2393.56)
(0 0 -2998.6)
(0 0 -3036.91)
(0 0 -2085.65)
(0 0 -2292.91)
(0 0 -2439.72)
(0 0 -2590.17)
(0 0 -1821.98)
(0 0 -1160.77)
(0 0 -667.092)
(0 0 -372.118)
(0 0 -970.228)
(0 0 -1254.6)
(0 0 -1435.29)
(0 0 -714.677)
(0 0 -1117.53)
(0 0 -1292.36)
(0 0 -1382.63)
(0 0 -1449.24)
(0 0 -743.011)
(0 0 67.3155)
(0 0 -533.802)
(0 0 -507.33)
(0 0 -847.366)
(0 0 -1026.98)
(0 0 -405.298)
(0 0 -976.38)
(0 0 -1187.58)
(0 0 -221.565)
(0 0 -662.554)
(0 0 -874.812)
(0 0 -1139.55)
(0 0 -988.994)
(0 0 -1283.69)
(0 0 -296.281)
(0 0 -659.827)
(0 0 -505.061)
(0 0 -739.557)
(0 0 71.3458)
(0 0 -555.891)
(0 0 -916.705)
(0 0 -528.176)
(0 0 186.688)
(0 0 -351.352)
(0 0 -738.118)
(0 0 -1030.59)
(0 0 -254.632)
(0 0 -668.327)
(0 0 -820.555)
(0 0 -206.522)
(0 0 -490.466)
(0 0 350.052)
(0 0 -34.8335)
(0 0 -326.425)
(0 0 -412.623)
(0 0 -562.438)
(0 0 82.8953)
(0 0 569.672)
(0 0 -74.3042)
(0 0 -394.016)
(0 0 89.3876)
(0 0 640.618)
(0 0 305.801)
(0 0 1000.33)
(0 0 1459.8)
(0 0 1296.05)
(0 0 867.119)
(0 0 633.077)
(0 0 515.747)
(0 0 731.194)
(0 0 646.397)
(0 0 1665.71)
(0 0 1632.77)
(0 0 2442.82)
(0 0 3088.47)
(0 0 180.684)
(0 0 -36.0632)
(0 0 -191.491)
(0 0 -458.526)
(0 0 -421.935)
(0 0 -854.901)
(0 0 -1144.12)
(0 0 -1250.78)
(0 0 -928.304)
(0 0 -1326.68)
(0 0 -1564.36)
(0 0 -1893.83)
(0 0 -2267.42)
(0 0 -2657.35)
(0 0 -2327.71)
(0 0 -2128.05)
(0 0 -2888.75)
(0 0 -3281.44)
(0 0 -2907.36)
(0 0 -3366.17)
(0 0 -3560.29)
(0 0 -3591.16)
(0 0 -3735.04)
(0 0 -3677.26)
(0 0 -2893.89)
(0 0 -3079.82)
(0 0 -3133.03)
(0 0 -2235.16)
(0 0 -2300.95)
(0 0 -2477.26)
(0 0 -2715.98)
(0 0 -2349.39)
(0 0 -1631.51)
(0 0 -1756.49)
(0 0 -1005.83)
(0 0 -502.688)
(0 0 -1137.09)
(0 0 -1404.65)
(0 0 -1564.31)
(0 0 -1414.51)
(0 0 -790.193)
(0 0 -1164.6)
(0 0 -1321.24)
(0 0 -1479.49)
(0 0 -646.52)
(0 0 6.2863)
(0 0 -550.048)
(0 0 -848.807)
(0 0 -164.966)
(0 0 -550.729)
(0 0 -599.039)
(0 0 -954.01)
(0 0 -501.323)
(0 0 204.158)
(0 0 -367.803)
(0 0 -796.064)
(0 0 -1049.51)
(0 0 -794.743)
(0 0 -486.99)
(0 0 133.247)
(0 0 -249.793)
(0 0 -389.851)
(0 0 -558.494)
(0 0 133.457)
(0 0 -425.128)
(0 0 -780.712)
(0 0 -910.688)
(0 0 31.8988)
(0 0 -250.378)
(0 0 -545.793)
(0 0 -744.942)
(0 0 -9.51585)
(0 0 393.846)
(0 0 -240.861)
(0 0 -541.804)
(0 0 -677.516)
(0 0 250.235)
(0 0 588.13)
(0 0 202.174)
(0 0 -40.4609)
(0 0 -227.649)
(0 0 -324.856)
(0 0 456.494)
(0 0 146.889)
(0 0 -104.537)
(0 0 -105.793)
(0 0 94.7299)
(0 0 725.501)
(0 0 1378.26)
(0 0 1819.17)
(0 0 1201)
(0 0 936.497)
(0 0 1451.97)
(0 0 1016.46)
(0 0 960.203)
(0 0 1491.48)
(0 0 2110.56)
(0 0 2377.83)
(0 0 2940.83)
(0 0 4333.57)
(0 0 257.16)
(0 0 -4.49042)
(0 0 24.2563)
(0 0 -294.421)
(0 0 -432.133)
(0 0 -426.534)
(0 0 -683.816)
(0 0 -918.654)
(0 0 -842.543)
(0 0 -751.524)
(0 0 -1220.62)
(0 0 -1734.65)
(0 0 -1776.97)
(0 0 -2514.98)
(0 0 -3016.65)
(0 0 -2544.15)
(0 0 -2987.8)
(0 0 -3352.22)
(0 0 -3293.66)
(0 0 -3585.94)
(0 0 -3418.13)
(0 0 -3436.64)
(0 0 -3464.05)
(0 0 -2904.34)
(0 0 -3156.94)
(0 0 -3220.5)
(0 0 -3062.84)
(0 0 -2059.69)
(0 0 -2225.67)
(0 0 -2371.69)
(0 0 -2609.73)
(0 0 -2462.04)
(0 0 -1684.45)
(0 0 -1501.15)
(0 0 -1630.32)
(0 0 -877.585)
(0 0 -1323.09)
(0 0 -1421.8)
(0 0 -1393.1)
(0 0 -791.622)
(0 0 -576.011)
(0 0 -1013.06)
(0 0 -1072.88)
(0 0 -1276.02)
(0 0 -1036.87)
(0 0 -256.727)
(0 0 -662.745)
(0 0 -874.787)
(0 0 -137.274)
(0 0 204.493)
(0 0 -356.549)
(0 0 -546.823)
(0 0 -3.65332)
(0 0 427.668)
(0 0 -251.282)
(0 0 -607.265)
(0 0 -486.7)
(0 0 -607.108)
(0 0 4.93483)
(0 0 -135.884)
(0 0 207.422)
(0 0 505.822)
(0 0 568.864)
(0 0 -13.4318)
(0 0 -391.944)
(0 0 -542)
(0 0 -689.338)
(0 0 214.304)
(0 0 509.05)
(0 0 11.3742)
(0 0 -286.248)
(0 0 -205.267)
(0 0 550.525)
(0 0 23.7336)
(0 0 -217.743)
(0 0 -378.966)
(0 0 86.478)
(0 0 202.052)
(0 0 831.017)
(0 0 524.822)
(0 0 359.284)
(0 0 94.5709)
(0 0 600.013)
(0 0 985.908)
(0 0 527.378)
(0 0 424.573)
(0 0 531.309)
(0 0 1109.93)
(0 0 1652.29)
(0 0 1913.12)
(0 0 1272.87)
(0 0 1479.42)
(0 0 1327.3)
(0 0 1200.19)
(0 0 1551.14)
(0 0 1937.3)
(0 0 2202.52)
(0 0 2638.7)
(0 0 3259.89)
(0 0 4364.88)
(0 0 322.105)
(0 0 23.6016)
(0 0 39.9612)
(0 0 -75.898)
(0 0 -163.205)
(0 0 -362.276)
(0 0 -235.154)
(0 0 -514.418)
(0 0 -714.31)
(0 0 -979.614)
(0 0 -923.081)
(0 0 -1613)
(0 0 -2180.13)
(0 0 -2540.11)
(0 0 -3264.76)
(0 0 -3360.2)
(0 0 -2951.14)
(0 0 -3212.76)
(0 0 -3316.79)
(0 0 -3260.81)
(0 0 -3103.66)
(0 0 -2987.53)
(0 0 -2912.03)
(0 0 -2663.06)
(0 0 -2765.65)
(0 0 -2552.55)
(0 0 -2196.93)
(0 0 -1714.79)
(0 0 -1960.33)
(0 0 -2148.97)
(0 0 -2185.01)
(0 0 -2128.45)
(0 0 -2013.89)
(0 0 -1713.45)
(0 0 -1714.04)
(0 0 -1053.8)
(0 0 -1320.59)
(0 0 -1144.52)
(0 0 -1008.29)
(0 0 -951.963)
(0 0 -1091.73)
(0 0 -1008.92)
(0 0 -807.461)
(0 0 -791.348)
(0 0 -276.105)
(0 0 -565.655)
(0 0 -599.903)
(0 0 -682.41)
(0 0 -473.99)
(0 0 79.5406)
(0 0 -191.706)
(0 0 129.996)
(0 0 146.235)
(0 0 -53.9976)
(0 0 -253.95)
(0 0 -394.377)
(0 0 -369.748)
(0 0 86.9466)
(0 0 226.296)
(0 0 340.638)
(0 0 348.897)
(0 0 571.829)
(0 0 407.587)
(0 0 42.9407)
(0 0 -212.939)
(0 0 -205.759)
(0 0 -194.185)
(0 0 523.588)
(0 0 328.249)
(0 0 423.213)
(0 0 298.929)
(0 0 374.274)
(0 0 563.306)
(0 0 285.796)
(0 0 232.844)
(0 0 262.19)
(0 0 302.676)
(0 0 889.75)
(0 0 1037.82)
(0 0 1192.86)
(0 0 1252)
(0 0 901.908)
(0 0 581.574)
(0 0 1246.26)
(0 0 1053.16)
(0 0 1116.69)
(0 0 1368.8)
(0 0 1740.39)
(0 0 1736.78)
(0 0 1583.05)
(0 0 1338.83)
(0 0 1396.49)
(0 0 1394.13)
(0 0 1558.4)
(0 0 1830.03)
(0 0 2152.11)
(0 0 2364.45)
(0 0 2482.25)
(0 0 2927.85)
(0 0 2388.77)
(0 0 382.246)
(0 0 98.6961)
(0 0 94.2228)
(0 0 75.5547)
(0 0 33.0479)
(0 0 -9.84839)
(0 0 -6.21401)
(0 0 -89.244)
(0 0 -380.869)
(0 0 -743.041)
(0 0 -933.766)
(0 0 -1425.85)
(0 0 -2129.13)
(0 0 -2640.96)
(0 0 -3156.79)
(0 0 -3181.79)
(0 0 -2845.21)
(0 0 -2719.5)
(0 0 -2697.4)
(0 0 -2534.83)
(0 0 -2472.23)
(0 0 -2284.84)
(0 0 -2291.7)
(0 0 -2162.94)
(0 0 -2008.08)
(0 0 -1671.42)
(0 0 -1323.15)
(0 0 -1062.71)
(0 0 -1085.78)
(0 0 -1307.34)
(0 0 -1112.56)
(0 0 -1123.11)
(0 0 -1281.07)
(0 0 -1053.13)
(0 0 -1121.23)
(0 0 -664.996)
(0 0 -624.641)
(0 0 -252.27)
(0 0 -320.421)
(0 0 -360.715)
(0 0 -757.534)
(0 0 -413.244)
(0 0 -18.284)
(0 0 49.4334)
(0 0 -95.2807)
(0 0 -325.153)
(0 0 -211.468)
(0 0 -206.747)
(0 0 82.2998)
(0 0 242.211)
(0 0 154.331)
(0 0 343.936)
(0 0 399.158)
(0 0 199.603)
(0 0 82.5514)
(0 0 161.091)
(0 0 218.075)
(0 0 462.369)
(0 0 619.235)
(0 0 721.615)
(0 0 834.054)
(0 0 1017.48)
(0 0 869.984)
(0 0 490.409)
(0 0 309.967)
(0 0 371.796)
(0 0 495.104)
(0 0 662.613)
(0 0 636.288)
(0 0 717.052)
(0 0 922.991)
(0 0 1103.78)
(0 0 1014.25)
(0 0 807.81)
(0 0 854.628)
(0 0 963.021)
(0 0 898.681)
(0 0 1087.55)
(0 0 1468.01)
(0 0 1822.01)
(0 0 1925.06)
(0 0 1445.12)
(0 0 1129.06)
(0 0 1472.36)
(0 0 1719.69)
(0 0 2049.03)
(0 0 2232.76)
(0 0 2358.77)
(0 0 2041.69)
(0 0 1753.65)
(0 0 1628.9)
(0 0 1602.5)
(0 0 1601.05)
(0 0 1837.76)
(0 0 2013.67)
(0 0 2310.13)
(0 0 2174.92)
(0 0 1985.17)
(0 0 2351.45)
(0 0 733.772)
(0 0 441.96)
(0 0 181.187)
(0 0 232.448)
(0 0 310.424)
(0 0 349.871)
(0 0 423.588)
(0 0 397.001)
(0 0 310.841)
(0 0 9.08084)
(0 0 -375.554)
(0 0 -725.89)
(0 0 -1228)
(0 0 -1930.68)
(0 0 -2282.14)
(0 0 -2570.68)
(0 0 -2544.12)
(0 0 -2591.56)
(0 0 -2198.78)
(0 0 -1765.14)
(0 0 -1585.4)
(0 0 -1513.42)
(0 0 -1364.99)
(0 0 -1506.22)
(0 0 -1876.88)
(0 0 -1364.95)
(0 0 -552.64)
(0 0 -497.996)
(0 0 -432.733)
(0 0 -334.838)
(0 0 -761.063)
(0 0 -163.712)
(0 0 -92.993)
(0 0 -365.216)
(0 0 -324.887)
(0 0 -578.439)
(0 0 -120.956)
(0 0 182.167)
(0 0 374.719)
(0 0 19.611)
(0 0 401.003)
(0 0 -24.4773)
(0 0 284.245)
(0 0 586.194)
(0 0 604.444)
(0 0 474.082)
(0 0 272.788)
(0 0 242.476)
(0 0 322.53)
(0 0 764.087)
(0 0 475.53)
(0 0 657.105)
(0 0 784.279)
(0 0 810.793)
(0 0 810.299)
(0 0 701.245)
(0 0 881.625)
(0 0 947.658)
(0 0 1201.23)
(0 0 1238.85)
(0 0 1257.57)
(0 0 1310.07)
(0 0 1361.24)
(0 0 1416.12)
(0 0 1159.8)
(0 0 1082.7)
(0 0 1086.74)
(0 0 1172.87)
(0 0 1180.34)
(0 0 1274.6)
(0 0 1301.69)
(0 0 1556.7)
(0 0 1574.92)
(0 0 1434.45)
(0 0 1433.19)
(0 0 1525.95)
(0 0 1569.28)
(0 0 1495.78)
(0 0 1683.3)
(0 0 1951.16)
(0 0 2047.73)
(0 0 2311.97)
(0 0 2153.14)
(0 0 1995.12)
(0 0 2339.46)
(0 0 2627.06)
(0 0 2643.77)
(0 0 2534.42)
(0 0 2385.7)
(0 0 1978.96)
(0 0 2049.2)
(0 0 2036.95)
(0 0 1915.92)
(0 0 1617.56)
(0 0 1804.07)
(0 0 2194.23)
(0 0 2070.06)
(0 0 2136.27)
(0 0 1936.27)
(0 0 1831.95)
(0 0 13.4631)
(0 0 498.712)
(0 0 268.748)
(0 0 387.965)
(0 0 477.127)
(0 0 594.414)
(0 0 808.984)
(0 0 820.842)
(0 0 723.621)
(0 0 406.573)
(0 0 9.63732)
(0 0 -460.302)
(0 0 -1023.54)
(0 0 -1440.67)
(0 0 -1392.99)
(0 0 -1675.21)
(0 0 -1796.55)
(0 0 -2220.31)
(0 0 -1585.13)
(0 0 -873.403)
(0 0 -818.327)
(0 0 -1048.4)
(0 0 -363.179)
(0 0 -647.888)
(0 0 -1236.72)
(0 0 -777.006)
(0 0 57.7518)
(0 0 -38.6695)
(0 0 -402.053)
(0 0 92.369)
(0 0 75.5554)
(0 0 636.299)
(0 0 1038.8)
(0 0 645.583)
(0 0 690.251)
(0 0 517.045)
(0 0 270.916)
(0 0 1048.34)
(0 0 1175.98)
(0 0 608.876)
(0 0 1112.43)
(0 0 893.975)
(0 0 676.043)
(0 0 732.775)
(0 0 1414.9)
(0 0 1009.4)
(0 0 995.176)
(0 0 488.139)
(0 0 715.773)
(0 0 1411.92)
(0 0 1157.68)
(0 0 902.294)
(0 0 1169.98)
(0 0 823.681)
(0 0 1658.62)
(0 0 1477.19)
(0 0 1384.51)
(0 0 1104.04)
(0 0 1628.89)
(0 0 1684.72)
(0 0 1612.03)
(0 0 1331.8)
(0 0 1359.08)
(0 0 2080.38)
(0 0 1785.11)
(0 0 1901.48)
(0 0 1775.62)
(0 0 1617.59)
(0 0 1256.93)
(0 0 1950.74)
(0 0 1944.68)
(0 0 1939.55)
(0 0 1556.46)
(0 0 2193.67)
(0 0 1862.01)
(0 0 2084.51)
(0 0 1900.81)
(0 0 1559.6)
(0 0 2048.82)
(0 0 1878.18)
(0 0 2351.96)
(0 0 2143.12)
(0 0 2551.23)
(0 0 2703.58)
(0 0 2839.12)
(0 0 3004.73)
(0 0 2629.99)
(0 0 1934.72)
(0 0 1897.1)
(0 0 2268.3)
(0 0 1813.69)
(0 0 2408.03)
(0 0 2476.56)
(0 0 2267.79)
(0 0 2093)
(0 0 1677.95)
(0 0 1636.46)
(0 0 1540.5)
(0 0 1677.22)
(0 0 1503.75)
(0 0 -239.462)
(0 0 549.84)
(0 0 348.512)
(0 0 527.961)
(0 0 625.972)
(0 0 782.043)
(0 0 1180.74)
(0 0 1208.53)
(0 0 1119.01)
(0 0 815.887)
(0 0 414.314)
(0 0 -268.192)
(0 0 -12.4124)
(0 0 -406.704)
(0 0 -500.053)
(0 0 -764.013)
(0 0 -968.407)
(0 0 -1445.26)
(0 0 -475.542)
(0 0 -821.274)
(0 0 -648.376)
(0 0 -63.9274)
(0 0 722.65)
(0 0 537.097)
(0 0 120.763)
(0 0 -395.936)
(0 0 -148.005)
(0 0 125.406)
(0 0 793.409)
(0 0 1652.46)
(0 0 1123.38)
(0 0 1276.42)
(0 0 1982.23)
(0 0 1978.9)
(0 0 1711.97)
(0 0 1402.3)
(0 0 785.916)
(0 0 1167.28)
(0 0 2077)
(0 0 1485.64)
(0 0 1436.35)
(0 0 1918.15)
(0 0 1606.2)
(0 0 1160.68)
(0 0 1832.96)
(0 0 2387.55)
(0 0 2053.86)
(0 0 1614.55)
(0 0 1179.46)
(0 0 1783.19)
(0 0 1283.64)
(0 0 2018.07)
(0 0 1619.27)
(0 0 1079.76)
(0 0 1863.54)
(0 0 2306.49)
(0 0 2151.48)
(0 0 1730.19)
(0 0 1306)
(0 0 1874)
(0 0 1657.5)
(0 0 1230.15)
(0 0 1715.64)
(0 0 2353.39)
(0 0 2751.61)
(0 0 2515.16)
(0 0 2306.01)
(0 0 2053.19)
(0 0 1571.88)
(0 0 2458.38)
(0 0 2586.26)
(0 0 2381.26)
(0 0 1889.59)
(0 0 2770.87)
(0 0 2912.57)
(0 0 2769.1)
(0 0 2463.65)
(0 0 2017.76)
(0 0 2822.46)
(0 0 2530.84)
(0 0 1977.94)
(0 0 2427.43)
(0 0 3304.14)
(0 0 2944.32)
(0 0 2458.97)
(0 0 3178.82)
(0 0 2960.7)
(0 0 2401.43)
(0 0 1560.05)
(0 0 1590.76)
(0 0 1915.86)
(0 0 2133.85)
(0 0 2893.69)
(0 0 2758.1)
(0 0 2364.27)
(0 0 1825.49)
(0 0 1147.53)
(0 0 1098.78)
(0 0 1359.28)
(0 0 1260.85)
(0 0 -304.235)
(0 0 589.099)
(0 0 601.334)
(0 0 1000.74)
(0 0 1202.05)
(0 0 1399.16)
(0 0 1481.8)
(0 0 1508.95)
(0 0 1461.72)
(0 0 1266.79)
(0 0 990.373)
(0 0 443.161)
(0 0 1034.3)
(0 0 618.868)
(0 0 386.103)
(0 0 190.997)
(0 0 13.3261)
(0 0 -481.141)
(0 0 637.492)
(0 0 676.944)
(0 0 485.574)
(0 0 1740.91)
(0 0 1939.42)
(0 0 1942.95)
(0 0 1662.4)
(0 0 1302.55)
(0 0 932.426)
(0 0 1925.33)
(0 0 2091.17)
(0 0 2749.59)
(0 0 2205.74)
(0 0 2706.61)
(0 0 2236.69)
(0 0 2993.16)
(0 0 2936.56)
(0 0 2769.81)
(0 0 2481.62)
(0 0 2159.36)
(0 0 3326.59)
(0 0 3289.36)
(0 0 2987.94)
(0 0 2744.19)
(0 0 2426.21)
(0 0 2104.33)
(0 0 2970.01)
(0 0 3284.82)
(0 0 2977.77)
(0 0 2733.1)
(0 0 2427.77)
(0 0 2080.44)
(0 0 1961.25)
(0 0 2781.9)
(0 0 2235.99)
(0 0 1634.66)
(0 0 2369.12)
(0 0 2997.73)
(0 0 2822.42)
(0 0 2497.05)
(0 0 2103.36)
(0 0 1699.99)
(0 0 1403.46)
(0 0 1933.76)
(0 0 2525.69)
(0 0 3194.39)
(0 0 3112.67)
(0 0 3089.68)
(0 0 2887.12)
(0 0 2437.51)
(0 0 1796.67)
(0 0 2307.46)
(0 0 3052.76)
(0 0 2552.39)
(0 0 2163.89)
(0 0 2692.99)
(0 0 3586.2)
(0 0 3494.04)
(0 0 3143.14)
(0 0 2777.29)
(0 0 3486.31)
(0 0 3114.13)
(0 0 2368.92)
(0 0 2807.61)
(0 0 3677.68)
(0 0 3409.86)
(0 0 2950.98)
(0 0 2596.52)
(0 0 3272.84)
(0 0 3053.38)
(0 0 2426.73)
(0 0 1766.53)
(0 0 2263.91)
(0 0 2023.03)
(0 0 2741.46)
(0 0 3029.3)
(0 0 2613.52)
(0 0 2197.28)
(0 0 1576.42)
(0 0 1171.98)
(0 0 464.691)
(0 0 581.3)
(0 0 -327.747)
(0 0 581.196)
(0 0 968.461)
(0 0 1345.4)
(0 0 1589.96)
(0 0 1682.32)
(0 0 1676.91)
(0 0 1678.98)
(0 0 1651.75)
(0 0 1656.26)
(0 0 1595.93)
(0 0 1220.34)
(0 0 2079.76)
(0 0 1704.65)
(0 0 1456)
(0 0 1305.91)
(0 0 1198.08)
(0 0 851.585)
(0 0 669.146)
(0 0 1595.38)
(0 0 1499.28)
(0 0 2418.7)
(0 0 2374.31)
(0 0 3285.38)
(0 0 3417.95)
(0 0 3215.47)
(0 0 2951.63)
(0 0 2864.52)
(0 0 3948.4)
(0 0 3966.62)
(0 0 3967.7)
(0 0 3921.81)
(0 0 3506.37)
(0 0 3488.35)
(0 0 3151.04)
(0 0 4029.99)
(0 0 3706.68)
(0 0 3021.02)
(0 0 3765.57)
(0 0 4192.78)
(0 0 3810.79)
(0 0 3174.76)
(0 0 2646.08)
(0 0 3198.79)
(0 0 4064.76)
(0 0 3709.44)
(0 0 3188.42)
(0 0 3976.07)
(0 0 3701.98)
(0 0 3326.34)
(0 0 2865.25)
(0 0 3811.55)
(0 0 3405.75)
(0 0 2741.51)
(0 0 3617.54)
(0 0 3336.86)
(0 0 2816.09)
(0 0 3495.1)
(0 0 3212.27)
(0 0 2819.56)
(0 0 2418.26)
(0 0 3203.93)
(0 0 3865.04)
(0 0 3446.1)
(0 0 2665.32)
(0 0 3254.9)
(0 0 3933.41)
(0 0 3600.19)
(0 0 3262.01)
(0 0 2924.07)
(0 0 3907.27)
(0 0 3749.08)
(0 0 3278.98)
(0 0 3192.35)
(0 0 4129.98)
(0 0 4083.52)
(0 0 3723.93)
(0 0 4550.79)
(0 0 4321.11)
(0 0 4114.53)
(0 0 3811.69)
(0 0 3317.81)
(0 0 4306.63)
(0 0 3941.05)
(0 0 3611.32)
(0 0 3164.23)
(0 0 2577.15)
(0 0 3047.8)
(0 0 2186.95)
(0 0 2606.36)
(0 0 1981.62)
(0 0 2432.71)
(0 0 2242.05)
(0 0 2983.96)
(0 0 2864.55)
(0 0 2360.58)
(0 0 2033.24)
(0 0 1473.29)
(0 0 1037.46)
(0 0 1158.9)
(0 0 -355.884)
(0 0 660.914)
(0 0 1127.72)
(0 0 1555.88)
(0 0 1815.97)
(0 0 1874.01)
(0 0 1794.7)
(0 0 1672.21)
(0 0 1327.27)
(0 0 2178.06)
(0 0 2021.36)
(0 0 1727.62)
(0 0 2696.92)
(0 0 2539.69)
(0 0 2530.14)
(0 0 2398.42)
(0 0 2357.05)
(0 0 2308.67)
(0 0 2030.34)
(0 0 1973.06)
(0 0 2963.86)
(0 0 2882.84)
(0 0 3885.55)
(0 0 3837.96)
(0 0 4889.06)
(0 0 5021.94)
(0 0 4795.57)
(0 0 4622.32)
(0 0 4382.75)
(0 0 3858.68)
(0 0 4738.79)
(0 0 4108.84)
(0 0 4484.58)
(0 0 4805.91)
(0 0 4495.41)
(0 0 5521.04)
(0 0 5387.96)
(0 0 5575.05)
(0 0 5612.41)
(0 0 5162.28)
(0 0 4822.81)
(0 0 4370.59)
(0 0 5162.09)
(0 0 4810.19)
(0 0 4759.55)
(0 0 4144.67)
(0 0 4886.15)
(0 0 5476.52)
(0 0 4953.67)
(0 0 4513.52)
(0 0 4035.92)
(0 0 5065.98)
(0 0 5166)
(0 0 4742.55)
(0 0 4167.92)
(0 0 3623.22)
(0 0 4429.38)
(0 0 4921.75)
(0 0 4635.3)
(0 0 4333)
(0 0 4031.16)
(0 0 5057.2)
(0 0 4772.08)
(0 0 4315.77)
(0 0 4025.62)
(0 0 5045.38)
(0 0 5103.88)
(0 0 4525.96)
(0 0 4044.3)
(0 0 3400.03)
(0 0 3935.73)
(0 0 4887.49)
(0 0 4936.58)
(0 0 4848.68)
(0 0 4487.46)
(0 0 4305.48)
(0 0 5390.39)
(0 0 5619.11)
(0 0 5113.76)
(0 0 4708.48)
(0 0 4363.3)
(0 0 3797.17)
(0 0 4896.17)
(0 0 4733.65)
(0 0 4380.04)
(0 0 4141.19)
(0 0 3885.02)
(0 0 3441.6)
(0 0 2482.34)
(0 0 2671.43)
(0 0 3030.11)
(0 0 2786.2)
(0 0 2272.13)
(0 0 1911.12)
(0 0 2552.19)
(0 0 1916.57)
(0 0 2200.38)
(0 0 1898.61)
(0 0 1426.78)
(0 0 1363.67)
(0 0 -431.264)
(0 0 802.032)
(0 0 1198.49)
(0 0 1704.92)
(0 0 2001.29)
(0 0 2079.82)
(0 0 2021.96)
(0 0 1897.64)
(0 0 1552.6)
(0 0 2474.61)
(0 0 2159.92)
(0 0 1854.74)
(0 0 2428.11)
(0 0 3253.94)
(0 0 3518.38)
(0 0 3510.42)
(0 0 3591.16)
(0 0 3648.6)
(0 0 3467)
(0 0 3579.14)
(0 0 3653.64)
(0 0 4788.37)
(0 0 5303.55)
(0 0 5339.04)
(0 0 5280.36)
(0 0 6457.08)
(0 0 6308.53)
(0 0 6236.92)
(0 0 5822.77)
(0 0 5486.4)
(0 0 6488.77)
(0 0 6187.38)
(0 0 6803.57)
(0 0 6571.32)
(0 0 6521.86)
(0 0 6173.38)
(0 0 7029.24)
(0 0 7321.1)
(0 0 7089.02)
(0 0 6521.22)
(0 0 6149.63)
(0 0 7142.1)
(0 0 7029.79)
(0 0 6797.33)
(0 0 6430.87)
(0 0 5759.72)
(0 0 6756.95)
(0 0 6545.73)
(0 0 6328.69)
(0 0 6126.55)
(0 0 5669.63)
(0 0 5234.94)
(0 0 6388.36)
(0 0 6269.28)
(0 0 5771.37)
(0 0 5415.01)
(0 0 5036.5)
(0 0 6071.28)
(0 0 6023.28)
(0 0 6137.48)
(0 0 5907.61)
(0 0 5709.07)
(0 0 5399.06)
(0 0 5238.97)
(0 0 5144.8)
(0 0 4966.76)
(0 0 5947.95)
(0 0 5913.21)
(0 0 5755.97)
(0 0 5276.91)
(0 0 4843.95)
(0 0 4950.49)
(0 0 5260.89)
(0 0 5721.08)
(0 0 5433.19)
(0 0 5246.97)
(0 0 4917.49)
(0 0 5723.26)
(0 0 5474.81)
(0 0 5101.45)
(0 0 4455.47)
(0 0 3792.89)
(0 0 4649.73)
(0 0 4354.67)
(0 0 4513.48)
(0 0 4091.37)
(0 0 5081.51)
(0 0 5122.88)
(0 0 4764.21)
(0 0 4311.76)
(0 0 3779.58)
(0 0 3193.72)
(0 0 2826)
(0 0 2093.74)
(0 0 2818.19)
(0 0 2362.95)
(0 0 1727.3)
(0 0 2207.34)
(0 0 1682.89)
(0 0 1410.22)
(0 0 -534.562)
(0 0 727.931)
(0 0 1202.36)
(0 0 1795.2)
(0 0 2154.14)
(0 0 2313.89)
(0 0 2356.26)
(0 0 2313.23)
(0 0 2062.68)
(0 0 3035.62)
(0 0 2935.71)
(0 0 3268.51)
(0 0 3168.86)
(0 0 2951.44)
(0 0 4085.6)
(0 0 4325.22)
(0 0 4622.49)
(0 0 4827.22)
(0 0 4742.82)
(0 0 4861.78)
(0 0 5028.36)
(0 0 5081.57)
(0 0 6230.34)
(0 0 6324.7)
(0 0 6453.88)
(0 0 7824.74)
(0 0 8030.02)
(0 0 8104.46)
(0 0 8054.54)
(0 0 7988.5)
(0 0 7798.56)
(0 0 8888.21)
(0 0 8926.66)
(0 0 8933.66)
(0 0 9005.08)
(0 0 8790.56)
(0 0 8840.2)
(0 0 8773.18)
(0 0 8631.03)
(0 0 8530.3)
(0 0 8509.01)
(0 0 8503.42)
(0 0 8361.68)
(0 0 8202.84)
(0 0 8005.83)
(0 0 7838.95)
(0 0 7736.89)
(0 0 7554.02)
(0 0 7435.53)
(0 0 7213.91)
(0 0 7018.78)
(0 0 6837.12)
(0 0 6870.13)
(0 0 6914.33)
(0 0 6825.29)
(0 0 6635.69)
(0 0 6389.67)
(0 0 6101.06)
(0 0 6363.09)
(0 0 6674.6)
(0 0 6354.51)
(0 0 5862.55)
(0 0 5372.6)
(0 0 4964.46)
(0 0 4440.38)
(0 0 4935.12)
(0 0 5561.51)
(0 0 6469.19)
(0 0 6991.67)
(0 0 6836.89)
(0 0 6725.44)
(0 0 6572.46)
(0 0 6476.69)
(0 0 6346.96)
(0 0 6125.13)
(0 0 5946.56)
(0 0 5766.28)
(0 0 5630.87)
(0 0 5427.08)
(0 0 5221.31)
(0 0 5097.83)
(0 0 4590.74)
(0 0 4029.27)
(0 0 4987.1)
(0 0 5060.24)
(0 0 4587.61)
(0 0 4202.13)
(0 0 4335)
(0 0 5093.37)
(0 0 4571.41)
(0 0 4681.41)
(0 0 4299.14)
(0 0 3908.48)
(0 0 3493.29)
(0 0 3049.18)
(0 0 3111.54)
(0 0 2713.31)
(0 0 2448.66)
(0 0 1787.2)
(0 0 1403.43)
(0 0 -569.15)
(0 0 649.172)
(0 0 1100.35)
(0 0 1752.73)
(0 0 2202.56)
(0 0 2492.47)
(0 0 2702.57)
(0 0 2906.03)
(0 0 3026.05)
(0 0 3087.93)
(0 0 3151.43)
(0 0 3181.04)
(0 0 2990.73)
(0 0 2759.24)
(0 0 3042.72)
(0 0 3602.74)
(0 0 4430.14)
(0 0 5528.69)
(0 0 5656.41)
(0 0 5912.21)
(0 0 6166.44)
(0 0 6297.75)
(0 0 6280.89)
(0 0 7274.97)
(0 0 7591.58)
(0 0 7554.89)
(0 0 8444.32)
(0 0 9402.05)
(0 0 9520.41)
(0 0 9627.6)
(0 0 9688.74)