/*--------------------------------*- C++ -*----------------------------------*\
| =========                 |                                                 |
| \\      /  F ield         | foam-extend: Open Source CFD                    |
|  \\    /   O peration     | Version:     5.0                                |
|   \\  /    A nd           | Web:         http://www.foam-extend.org         |
|    \\/     M anipulation  |                                                 |
\*---------------------------------------------------------------------------*/
FoamFile
{
    version     2.0;
    format      ascii;
    class       volScalarField;
    location    "0.055";
    object      p;
}
// * * * * * * * * * * * * * * * * * * * * * * * * * * * * * * * * * * * * * //

dimensions      [1 -1 -2 0 0 0 0];

internalField   nonuniform List<scalar> 
4000
(
105845
109853
112438
114636
116674
118898
121168
123575
124976
126121
130226
134834
137687
142151
147557
154619
162354
167451
173026
179317
184915
185968
184297
186451
189005
191595
195462
199911
203344
203568
206445
212548
217019
219045
221584
225817
229857
233083
232206
227821
223126
220991
221889
221094
217962
214300
210077
203762
197993
193280
188162
181238
174943
172396
171638
170830
169589
167759
164262
159935
157553
155859
152410
148142
145215
144766
144782
144684
145522
146826
147482
147569
146165
142723
136975
132505
130970
129965
127984
123816
119464
116662
113303
109593
107706
104086
98327.2
93725.7
88985.1
82270.4
76057.3
72022.5
67248.8
60697
53353.7
46137.9
37669.1
26470.1
14441.1
4848.88
105645
109746
112301
114528
116622
118816
121042
123584
125033
126094
130239
134992
137710
142126
147497
154452
162343
167353
172954
179323
184984
185941
184165
186589
189100
191470
195391
200049
203502
203570
206408
212560
217042
218981
221495
225776
229699
232990
232234
227793
223065
221027
221916
221058
217912
214234
210036
203778
198027
193305
188226
181346
175027
172428
171685
170826
169502
167713
164305
159952
157514
155898
152473
148140
145277
144926
144862
144648
145464
146847
147438
147468
146109
142721
136952
132521
130970
129906
127882
123790
119495
116817
113299
109441
107586
104092
98267.7
93654.7
88979.8
82257.6
76085.8
72080
67268.1
60671.2
53340.2
46135.9
37819.2
26533.7
14285.3
4773.37
105504
109692
112262
114558
116637
118608
120952
123770
124907
125965
130405
135028
137646
141934
147456
154354
162150
167443
173188
179195
184858
185978
184152
186724
189212
191281
195308
200413
203447
203335
206397
212538
216985
219115
221549
225617
229584
233036
232341
227736
222905
221085
221978
221085
217875
214067
209945
203852
198067
193291
188214
181445
175065
172358
171670
170763
169359
167687
164357
159951
157490
155981
152519
148026
145295
145103
144901
144572
145314
146895
147491
147441
146083
142747
136931
132430
130914
129895
127825
123755
119465
116877
113338
109330
107522
104085
98206.5
93601
88980
82230.8
76138.4
72205
67340.8
60658
53331.1
46139.2
38070.7
26727.9
13913.6
4512.49
105662
109663
112262
114786
116743
118548
120860
123788
124820
125962
130550
134801
137493
141659
147231
154597
162286
167380
173107
179232
184736
185938
184445
186976
188982
191065
195507
200798
203159
202982
206383
212510
216949
219280
221792
225422
229294
233124
232478
227538
222680
221172
222139
221175
217744
213812
209786
203955
198139
193289
188132
181520
175076
172198
171496
170587
169241
167699
164403
159877
157540
156081
152481
147803
145304
145356
144945
144369
145131
146927
147645
147449
146028
142749
136983
132361
130848
129917
127770
123591
119382
116910
113348
109262
107469
104179
98241.4
93568.6
88902.1
82131.8
76278.2
72394.5
67410
60558
53251.6
46284.8
38454.6
26844.3
13546.5
4302.49
106224
109805
112398
114938
116875
118579
120825
123773
124781
126060
130452
134572
137286
141355
147308
155148
162663
167191
172800
179462
184704
186009
184902
186673
188595
191076
195885
200981
202766
202704
206446
212295
216858
219692
222097
225060
229045
233260
232522
227262
222387
221280
222385
221336
217573
213586
209610
204119
198302
193292
187944
181552
175049
171942
171278
170399
169180
167913
164451
159678
157666
156216
152352
147474
145277
145763
145180
144189
144795
146935
147916
147512
145914
142737
137097
132363
130801
129986
127758
123356
119283
116962
113372
109219
107599
104471
98401.3
93549.4
88730.3
81960.5
76478
72596.7
67460.4
60475.9
53171.5
46518.3
38901
27075.7
13024.9
3909.25
107071
109906
112495
115154
117121
118690
120817
123644
124757
126066
130284
134400
137084
141296
147521
155819
162994
167159
172895
179772
184443
186174
185505
186039
188171
191377
196280
200751
202112
202533
206730
212180
216786
220187
222227
224664
228903
233322
232500
226936
222079
221390
222693
221619
217712
213422
209446
204366
198497
193190
187771
181587
175037
171482
171011
170324
169335
168411
164614
159393
157592
156256
152146
147036
145195
146252
145658
144087
144444
146812
148149
147692
145773
142681
137162
132425
130733
129959
127677
123101
119131
116995
113358
109267
107948
104911
98614.1
93497
88466.5
81741.6
76652
72759.2
67409.7
60534.4
53330.8
46805.6
39313.8
27399.7
12427.4
3289.34
108093
110138
112583
115297
117407
118947
120826
123561
124835
125979
129985
134246
137031
141321
147806
156346
163478
167528
172884
179759
184345
186217
185937
185896
187789
191654
196643
200103
201085
202591
207217
212155
216748
220397
222287
224408
228775
233445
232479
226587
221770
221398
223044
222018
217936
213379
209450
204794
198799
193117
187602
181631
175011
170864
170740
170405
169658
168934
164813
159124
157330
156209
151865
146534
145018
146695
146253
144032
144116
146753
148359
147804
145623
142508
137176
132516
130741
129948
127604
122883
118944
116910
113367
109422
108356
105331
98804.7
93471.3
88147.6
81450.7
76774.1
72843.2
67439.8
60762.7
53623.1
47075.6
39588.2
27765.1
11782.3
2463.41
109161
110423
112748
115468
117625
119307
120985
123376
124876
125960
129530
133944
137154
141550
148218
156615
163810
168235
173049
179486
184380
186101
186339
186014
187229
191787
196691
199297
200257
202727
207601
212157
216758
220547
222191
224099
228756
233652
232520
226282
221536
221501
223446
222408
218105
213344
209725
205376
199166
192956
187361
181728
174829
170258
170396
170538
170055
169318
164962
158896
156993
156049
151484
145989
144863
147080
146714
143987
143824
146799
148662
147780
145355
142283
137217
132646
130861
129989
127528
122717
118828
116844
113425
109649
108689
105690
99016.6
93404.4
87694.5
81041.9
76824.2
72992.2
67561.5
60996.3
53920.3
47263.8
39806.9
28263.5
10909.2
1446.31
110185
110683
112976
115705
117787
119601
121336
123357
124719
125883
128965
133450
137419
142115
148730
156886
163861
168689
173629
179490
183975
185892
186410
185794
187116
192224
196422
198298
199587
202762
207721
211969
216813
220762
222084
223830
228813
233882
232567
225959
221406
221741
223745
222703
218112
213258
210133
206049
199447
192700
187226
181733
174452
169668
170015
170619
170460
169573
164921
158678
156761
155831
150956
145443
144723
147441
147080
143943
143554
146853
149002
147791
145087
142137
137464
132802
130962
130121
127492
122603
118733
116751
113484
109883
108966
106052
99339.2
93188.7
87003.7
80582.6
76913
73217.6
67613.3
61237.6
54162.9
47225.1
39937.7
28776.9
9745.01
356.031
111177
110904
113194
115954
118035
119817
121598
123416
124576
125592
128475
133108
137460
142791
149568
156915
163974
169317
173789
179149
183618
185756
186267
185637
187389
192451
196137
197317
198778
202497
207600
211932
216772
220975
222138
223606
228931
234145
232439
225607
221479
222116
223932
222849
218099
213228
210703
206774
199696
192427
187141
181635
173886
168987
169636
170681
170787
169762
164753
158521
156660
155558
150353
145000
144704
147776
147337
143868
143284
146973
149287
147821
144905
142119
137791
132989
131068
130197
127396
122460
118628
116645
113522
110099
109247
106462
99625.6
92910.7
86190.5
80186.5
77010.7
73346.8
67725.8
61515.7
54111.4
46788.2
40060.2
29327.3
7851.86
-1400.9
112102
111079
113393
116185
118317
120061
121709
123353
124500
125309
127847
132859
137659
143270
150636
157138
163747
170062
174042
178433
183235
185416
185962
185836
187586
192250
195781
196563
198013
202051
207282
212085
216895
221034
222233
223653
229076
234235
232172
225398
221825
222681
224170
222849
217896
213327
211306
207497
199882
192138
187062
181440
173191
168233
169242
170726
171049
169918
164599
158396
156592
155202
149774
144712
144810
148113
147574
143704
142974
147175
149553
147750
144757
142249
138147
133202
131208
130192
127284
122287
118437
116591
113662
110361
109543
106812
99652.1
92337.6
85417.3
80044.8
77150.5
73479.1
67854.5
61593
53836.9
46325
40345.6
29434.7
5712.17
-2996.03
112934
111201
113542
116403
118610
120316
121791
123212
124376
125126
127305
132464
138009
143991
151380
157511
163767
170443
174290
177973
182491
184884
185703
185862
187834
192157
195133
195798
197626
201913
207088
212152
217001
221002
222405
223964
229266
234299
231869
225290
222427
223299
224387
222785
217782
213570
211934
208171
200063
191856
186893
181159
172389
167402
168852
170731
171247
169992
164471
158337
156481
154833
149321
144549
144994
148439
147844
143526
142679
147350
149826
147594
144665
142474
138447
133377
131291
130184
127080
121964
118184
116722
113969
110667
109803
106907
99396.4
91641.9
84795
80022.6
77268
73607.3
67944.1
61497.8
53510.5
45918.4
40306.8
29155.8
3649.54
-4552.06
113646
111317
113658
116544
118838
120546
121839
123028
124170
124931
126947
132125
138215
144842
151989
157887
164022
170388
174452
177752
181672
184186
185225
185739
188135
191992
194622
195339
197294
201928
207100
212190
217075
220903
222602
224401
229509
234411
231833
225374
222988
223890
224650
222723
217777
213891
212591
208732
200166
191571
186597
180820
171517
166538
168515
170727
171424
170053
164335
158280
156424
154577
149001
144444
145164
148784
148202
143364
142489
147505
150017
147538
144634
142691
138818
133585
131343
130049
126890
121641
117861
116994
114551
110909
109803
106793
98945.2
90874.3
84395.2
80248.9
77431.2
73652
68096.3
61266
53000.1
45434.6
39901.7
28834.7
1930.3
-6102.3
114262
111365
113705
116654
119037
120788
121833
122807
124003
124739
126708
132019
138427
145415
152569
158270
164253
170257
174243
177345
181043
183597
184592
185715
188490
191809
194265
194953
197006
201987
207184
212262
217189
220945
222923
224919
229784
234551
232039
225586
223446
224606
225068
222725
217873
214241
213224
209312
200197
191155
186112
180410
170667
165600
168083
170709
171661
170202
164188
158164
156462
154440
148828
144388
145141
149085
148702
143294
142230
147444
150318
147610
144591
142918
139073
133922
131337
129828
126719
121473
117624
117092
115251
111312
109709
106600
98545.1
90030.9
84233.6
80547.1
77489.1
73629.3
68054.8
61098.2
52504.2
45070.5
39498.8
28066.6
567.101
-7309.74
114750
111393
113704
116740
119276
120930
121777
122610
123852
124509
126603
132113
138589
145657
152784
158383
164537
170153
173825
176899
180395
182939
184062
185711
188823
191766
193943
194477
196792
202145
207392
212390
217406
221106
223291
225707
230202
234646
232395
225924
223850
225579
225844
222662
217997
214570
213845
209979
200238
190557
185471
180090
169947
164461
167239
170534
171965
170453
164180
158184
156459
154480
148633
144224
145112
149398
149168
143487
141754
146908
150638
147956
144540
143056
139364
134176
131394
129548
126805
121484
117281
117073
116152
112031
109467
106038
98291.4
89599.7
83992.6
80814.5
77487.3
73285.3
67882.2
60858.4
52171.7
44916.7
39182.6
27149
-522.325
-8207.22
115065
111419
113643
116783
119462
121098
121827
122452
123721
124430
126549
132149
138704
145745
152752
158473
164592
169795
173361
176380
179503
182187
183648
185546
188995
191815
193707
194158
196873
202201
207746
212646
217878
221415
223490
226716
231010
234763
232535
226555
224601
226761
226779
222614
217979
214752
214509
210775
200553
190025
184543
179604
169263
163396
166164
169968
172158
170840
164529
158296
156371
154323
148652
144109
145002
149752
149521
143839
141358
146107
150689
148540
144786
142925
139337
134413
131684
129186
126572
121973
117299
116841
116577
112823
109457
105326
98004.9
89413
83875.7
80944.5
77583.1
72780
67282
60540.3
51924.2
44773.6
38958.8
26418.3
-1451.22
-8921.38
115178
111534
113663
116875
119525
121275
121944
122123
123627
124553
126442
132128
138824
145804
152605
158322
164363
169275
172697
175776
178436
181350
183289
185306
188893
191972
193660
194282
197123
202364
208325
213021
218645
221956
223697
227432
232189
235147
232440
227348
225805
228142
227401
222721
218089
215000
215184
211417
200971
189696
183456
178713
168675
162479
164658
168795
172124
171417
165073
158670
156149
154183
148996
144090
144894
150204
150027
144431
141167
145013
150129
149042
145511
142771
139112
134591
132013
128792
125968
122816
117735
116810
116685
113140
109665
104882
97589.8
89195.2
83856.1
80935.2
77635.6
72603
66517
59885.4
51876.3
44746.7
38572.1
25824.7
-1930.47
-9232.71
115179
111659
113797
116988
119577
121519
122001
121710
123560
124844
126418
132143
138701
145869
152516
157893
163815
168652
171967
174866
176990
180416
183277
184824
188656
192108
194204
195408
197304
202857
209128
213578
219640
222751
224426
227624
232809
236240
232887
228325
227064
229191
228285
223450
218283
215459
215789
211607
201184
189569
182177
177002
168034
161407
162873
167837
171956
171854
165658
158916
156080
154423
149502
144621
145227
150264
150124
144870
141321
143908
148897
149194
146561
143404
138820
134611
132211
128395
125350
123361
118492
116907
116701
113555
109678
104746
97265.5
88945.7
83801.4
80739.6
77518.7
72518.5
65914.6
59236.1
51815.8
44794.6
38357.9
25305.3
-1772.75
-9065.77
115264
111760
113793
116916
119812
121868
121964
121450
123500
124935
126584
132099
138389
145879
152286
157200
162810
167647
171393
173942
175377
179261
183506
184619
187942
192276
195057
196734
198192
203912
209560
214696
221120
223858
225297
227578
233486
237432
234116
229487
228456
230391
229037
224442
219082
216520
216110
211060
200802
189465
180671
174516
166672
159897
161510
167412
171452
171617
165909
159384
156174
154560
150244
145763
145768
149812
149837
145150
141404
142943
148009
149071
146937
143790
138995
134837
132167
128256
124735
123494
119595
117339
116451
113549
109703
104763
96858.7
88754.5
83964.3
80722.1
77199.1
72273.5
65700.2
58763.5
51746.7
44790.2
38128.2
25116.5
-1171.84
-8603.57
115407
111764
113748
116920
120140
122220
121974
121401
123398
124594
126598
132255
138094
145425
151798
156131
161392
166418
170617
173297
174435
177845
183022
185025
187494
191679
195887
198357
199993
205386
210290
216060
222452
224887
226429
228390
234144
238280
235436
231411
230228
231262
229717
225570
220669
217822
215947
210333
200297
188900
179313
171915
164286
158292
159597
166527
171237
170957
165805
159609
156179
154974
151272
146963
146798
149836
148960
145011
140947
141495
147102
149401
147667
143851
139084
135512
132399
127735
123943
123728
121263
117999
116570
113429
109810
104972
96102.7
88253.7
83804.1
81012.5
77097.5
72213.4
65917.4
58548.3
51528.5
44785.3
38042.9
25115.1
-162.364
-7877.32
115481
111838
113755
117107
120517
122408
122015
121614
123239
124204
126810
132083
137736
144925
150869
154821
160044
165375
169165
171826
173713
176929
181962
185148
187871
191118
196066
199971
201653
206695
211989
217597
223190
225785
227587
229998
235046
238639
236781
233424
231984
232104
230493
226811
222351
219002
215996
209851
199753
188149
177838
169360
162237
156846
157434
165110
171126
171298
166448
159460
155987
155839
152557
148195
147909
149707
148737
144766
139334
139255
145998
149905
148686
144092
139267
136288
132749
127471
123718
124275
122823
119094
117210
113433
109865
104886
95947.5
87855.7
83393.2
81697
77354.4
72114.4
65845.6
58676.1
51774.6
44773.1
38074.7
25565
1129.97
-6991.3
115424
111845
113907
117302
120765
122622
122395
121862
122660
123642
127321
132204
136951
143953
149552
153747
158618
163521
167192
170023
172412
175990
180922
184524
187648
191402
196468
200488
202908
207815
213340
218860
223928
226706
228797
231463
235897
239149
238143
235369
233665
233067
231396
228068
223905
220158
216322
209715
199397
187526
176555
167168
160372
155332
156072
164260
170854
171286
166984
159872
156055
156451
154417
150223
148737
149191
148333
144065
137962
137104
144470
150642
149914
145125
139709
136705
133239
127653
124096
124747
123869
120244
118345
114267
109881
104371
95915.2
87864.2
83524.3
82080.4
77509.1
72120.9
65495.4
58850.1
52580.1
45262.4
38280.5
26304.3
2655.52
-5903.43
115281
111810
114114
117488
120802
122788
122755
122036
122330
123415
127509
132186
136304
142959
148146
151830
156144
160957
164788
167888
170795
174584
179499
183566
187209
191357
196423
200740
203963
208833
214461
219924
224673
227616
229966
232757
236738
239766
239392
237144
235283
234136
232361
229295
225369
221386
216945
209907
199308
187068
175351
165114
158416
153900
155269
163278
170551
171422
166807
160035
155938
157243
156500
151776
149804
149026
147679
143759
136737
135260
143853
151621
150611
146013
140563
137238
133417
128167
125103
124990
124032
121322
119651
115748
110098
103562
95874.1
88218.3
84262.8
82224.1
77291.5
72212.3
65645
59339.7
53332
45925.2
38887.1
27427.7
4737.3
-4423.18
115010
111819
114192
117706
120848
122701
122960
122430
122064
123141
127535
131713
135416
141689
146587
149678
153543
158421
162346
165672
168972
173010
177999
182496
186618
191086
196175
200769
204656
209606
215302
220741
225346
228460
231052
233916
237548
240404
240513
238726
236802
235244
233336
230487
226776
222669
217782
210391
199505
186846
174260
163042
156449
152856
154885
162573
169764
170996
166514
160038
156296
158437
158326
152974
150482
148561
147223
143860
135927
134053
143199
151952
151102
146779
141802
137855
133150
128416
126409
125241
123679
122161
120991
117288
110796
103098
95486.7
88980.3
85139.3
82110.4
77427.8
72584.7
66037.2
59923.4
53901.8
46749.9
39865.3
28993.2
7655.85
-2408.18
114602
111864
114123
117695
120852
122582
123089
122768
122072
122706
126942
131603
134584
139708
144854
147490
151139
156170
160082
163585
167138
171354
176420
181314
185895
190640
195749
200531
204922
210051
215807
221272
225872
229203
231994
234906
238271
240989
241471
240082
238159
236307
234276
231608
228089
223932
218746
211134
200014
186937
173390
161112
154741
152307
154758
161879
168286
169996
166127
159836
157092
159938
159704
154508
151182
147976
147140
143585
134436
132940
142568
151845
151600
147563
142985
138546
133383
128712
127111
125489
123250
122914
122493
118424
111355
103026
95269.5
89743.5
85847.8
82049.8
77689.9
72777
66720.7
60643.3
54367.4
47595.2
40966.7
30732.9
11309.2
134.162
114080
111868
114041
117568
120675
122409
123168
123010
122274
122512
126028
131048
134081
137876
142685
145358
149023
154195
158086
161731
165452
169715
174872
180130
185142
190111
195234
200124
204822
210149
215969
221506
226201
229781
232746
235690
238858
241472
242234
241185
239307
237250
235123
232591
229247
225099
219776
212110
200856
187391
172744
159230
153416
151981
154678
161282
166577
168738
165629
159492
158099
161361
160613
155983
151851
147816
147299
142947
132788
132069
141823
151314
152068
148339
144050
139445
133866
129452
127911
125547
122875
123394
123694
119469
111921
102923
95456.5
90263
86054.4
81924.4
77738.1
73112.6
67415.4
61237.9
54928.4
48329.7
41918.6
32361.9
15244.5
2935.96
113445
111842
113972
117324
120383
122341
123220
123162
122375
122387
125500
130271
133573
136373
140349
143500
147319
152623
156506
160218
164013
168219
173465
179020
184393
189550
194726
199719
204602
210053
215949
221572
226395
230196
233318
236260
239281
241811
242757
241966
240149
237950
235718
233257
230065
225991
220715
213234
201991
188218
172332
157493
152458
152137
154674
160522
165422
167778
164907
159412
158735
161887
161173
157225
152645
148099
147494
142107
131403
131428
141133
150517
152108
148877
145096
140237
134213
130529
128967
125579
122696
123724
124502
120571
112779
103219
95808.6
90487.7
85941.6
81602.1
77533.3
73323.6
67948.5
61774.8
55519.5
49015.1
42755.8
33981.1
18907.3
5632.31
112725
111797
113838
117029
120078
122177
123274
123284
122361
122307
125182
129510
132805
135423
138701
141838
146011
151497
155422
159070
162837
166970
172250
178030
183722
189069
194286
199306
204261
209746
215697
221427
226397
230390
233644
236593
239527
241998
243043
242418
240662
238396
236049
233581
230464
226441
221273
214161
203308
189426
172200
156284
151919
152489
154665
159760
164469
167046
164514
159481
158953
161962
161692
158251
153322
148592
147656
141329
130481
130992
140386
149601
151806
149266
145996
140858
134690
131529
129783
125730
122681
123948
124845
121418
113847
104042
96330.5
90599.3
85656.5
81075.9
77044.9
73257.5
68286.5
62219.4
56050.2
49643.8
43579.8
35486.6
22255.8
8192.96
111961
111685
113630
116664
119735
121964
123206
123400
122391
122171
124801
128972
132084
134653
137507
140691
145196
150446
154555
158091
161817
165900
171230
177137
183003
188482
193746
198797
203793
209287
215254
221060
226157
230316
233711
236712
239603
242019
243121
242616
240931
238657
236230
233678
230561
226578
221523
214836
204638
190952
172536
155638
151617
152669
154666
159260
163830
166471
164240
159611
159178
162009
161933
158934
153992
149099
147773
140842
129969
130659
139708
148595
151283
149449
146652
141345
135231
132349
130348
126014
122830
124131
125115
122126
114844
105065
97022.5
90921.9
85500
80384.5
76218
72899.3
68461.5
62622.3
56603.2
50424.1
44787.5
37323.6
26064.7
10864.7
111119
111500
113368
116263
119343
121668
123030
123450
122545
122125
124438
128451
131466
133956
136606
139838
144590
149716
153655
157094
160985
165057
170361
176265
182203
187779
193097
198189
203236
208744
214700
220532
225710
230003
233544
236635
239514
241873
243005
242615
241037
238804
236338
233698
230569
226616
221565
215219
206035
193160
173523
155403
151533
152945
154790
158891
163365
165886
163872
159767
159404
162006
162006
159387
154762
149774
148059
140544
129413
130590
139112
147334
150626
149474
147220
141663
135510
132914
130781
126288
123043
124337
125273
122591
115680
106032
97733.7
91391.2
85502.4
79485.5
75110.1
72350.4
68545.2
63099.1
57321.1
51450.2
46377.2
40070.5
30949.1
14268.6
110261
111246
113079
115791
118923
121309
122791
123417
122645
122111
124063
127979
131014
133307
135983
139351
144038
149098
153134
156545
160342
164370
169598
175433
181372
187027
192412
197554
202663
208181
214095
219905
225119
229518
233194
236389
239277
241590
242749
242488
241053
238912
236462
233797
230692
226767
221691
215688
207701
195950
174894
155448
151782
153496
155113
158594
162961
165216
163216
159947
159652
161789
161900
159956
156022
150585
148732
140425
128635
130784
138472
146074
149948
149474
147805
141732
135403
133157
131027
126505
123282
124599
125331
122914
116386
106908
98437.9
91938.1
85630.8
78472.8
73867.2
71712.7
68538.6
63565.3
58054.2
52510.8
47981.7
43130.5
36700.6
18911.9
109412
110976
112725
115287
118471
120938
122540
123320
122678
122097
123697
127582
130632
132606
135266
138785
143467
148620
152791
156099
159770
163794
168924
174665
180555
186245
191693
196917
202116
207659
213530
219294
224510
228975
232754
236034
238933
241207
242384
242237
240955
238938
236546
233899
230839
226925
221823
216189
209280
198676
176138
155718
152532
154231
155713
158492
162374
164834
162786
159906
159760
161487
161814
160718
157573
151474
149368
140034
127889
131195
138064
144905
149277
149655
148133
141696
135105
133014
131135
126949
123796
124684
125622
123655
117280
108008
99431.8
92887.4
85985
77459.1
72659.1
71092.4
68492
64000.1
58766.1
53540.8
49463.8
46028.9
42629.9
23772.7
108631
110665
112370
114800
118053
120645
122271
123207
122656
122003
123405
127351
130288
131954
134409
137929
142755
148016
152239
155676
159299
163336
168353
173989
179827
185536
191040
196349
201643
207217
213043
218748
223943
228443
232289
235627
238525
240759
241940
241886
240748
238867
236563
233954
230913
226979
221869
216455
210119
200420
176827
156048
153227
154974
157136
159022
161943
164672
162261
159505
159330
160779
161694
161164
159264
152665
149542
139288
127400
131597
138095
144401
148665
149750
148038
141483
134924
132761
131245
127615
124463
124688
125689
124147
118068
109333
100821
94327.1
87057.8
76946.5
71569.1
70539.4
68418
64349
59371.2
54455.8
50782.2
48642.8
48148.4
28093
107969
110327
111988
114448
117787
120450
121956
123013
122579
121846
123244
127327
129910
131461
133567
136736
141858
147219
151645
155235
158866
162940
167893
173441
179219
184929
190482
195879
201269
206875
212657
218295
223454
227966
231851
235219
238102
240294
241471
241491
240482
238744
236538
233964
230924
226960
221876
216511
210264
201020
177055
156670
154122
155737
158240
159926
162269
164511
161135
158293
159254
160652
161564
161492
160486
153420
149235
138402
127320
132163
138369
144230
148183
149850
147891
140539
134618
133137
131443
128304
125049
124638
125737
124529
118666
110074
102202
95951
88412.4
76713.4
70389.1
70136.8
68286.5
64556.8
59818.8
55221.1
51938.1
50933.7
52902.3
31510.2
107320
109979
111720
114242
117589
120240
121753
122815
122415
121748
123283
127426
129617
131065
132741
135340
140872
146367
150953
154707
158459
162625
167547
173021
178739
184445
190044
195529
201013
206652
212393
217964
223081
227589
231491
234867
237727
239877
241047
241126
240234
238626
236512
233981
230945
226971
221931
216509
210068
200716
177092
157535
155014
156653
159460
160710
162322
163969
160234
157560
159047
160487
161415
161726
161225
153764
148678
137638
127601
132861
138650
144085
147680
149421
148236
140149
133772
133278
131460
128374
125675
125253
125705
124336
119459
111285
103194
96648.6
89096.5
76428.6
69417.3
69792.7
68046.4
64597
60112.4
55856.2
52951.8
52880.1
56724.1
33973.8
106763
109689
111641
114212
117366
119975
121743
122648
122170
121704
123446
127702
129420
130829
132105
134210
140051
145608
150333
154261
158157
162421
167330
172745
178412
184114
189754
195320
200890
206560
212265
217774
222847
227343
231249
234623
237456
239568
240726
240850
240052
238559
236542
234066
231046
227089
222074
216539
209829
199797
177165
158521
155527
157399
160556
160609
161785
164608
160077
156584
158752
160298
161299
161869
161526
153862
148045
137123
128058
133445
138939
143994
147281
148891
148089
139941
133424
133361
131515
128308
125993
125686
125580
123876
119428
112141
104766
97304.3
88737.8
75821.7
68776.5
69437.3
67740.9
64504.4
60277.6
56383.2
53845.2
54480.9
59526.8
35442.2
106423
109546
111711
114236
117087
119777
121885
122619
121903
121686
123788
127937
129329
130738
131624
133353
139497
145107
149927
153986
158004
162350
167256
172628
178254
183950
189621
195252
200889
206585
212264
217722
222754
227236
231143
234511
237315
239386
240524
240680
239960
238566
236636
234219
231224
227303
222280
216666
209661
198528
177461
159676
155613
158075
161707
160268
160866
164710
160088
156188
158495
160171
161260
161952
161467
153830
147495
136880
128532
133769
139169
143933
146982
148430
147523
139843
133628
133437
131569
128116
126008
125898
125421
123461
119226
112192
105416
98103.2
88235.8
75174.2
68416.6
68975.3
67413.2
64334.4
60355.9
56817.9
54628.9
55720.2
61290.7
35921.2
106334
109539
111744
114235
116971
119613
122165
122707
121680
121849
124203
128106
129339
130820
131375
132818
139233
144894
149762
153891
157984
162384
167292
172634
178232
183917
189608
195281
200963
206679
212345
217773
222780
227253
231159
234515
237281
239308
240433
240609
239944
238621
236757
234389
231424
227539
222498
216849
209576
197241
177946
160832
155173
158289
162232
160145
160344
164391
160206
156239
158307
160140
161295
161990
161187
153749
147154
136825
128922
133865
139322
143896
146792
148053
146779
139913
134212
133524
131593
127826
125823
125975
125292
123176
119065
111940
105085
98327.3
87978.7
74857.3
68174.3
68438.8
67129.8
64164.9
60398.7
57159.5
55239.9
56544.8
61997.8
35494.8
106425
109535
111831
114281
116954
119669
122337
122712
121635
122196
124605
128192
129422
131067
131401
132676
139257
144910
149753
153891
158023
162455
167353
172673
178253
183930
189634
195340
201057
206783
212443
217864
222866
227337
231241
234579
237313
239318
240433
240613
239975
238689
236866
234532
231596
227748
222714
217029
209619
196347
177632
161173
155206
158426
162110
160165
160165
164020
160411
156481
158196
160192
161373
162009
160839
153639
146889
136803
129298
133917
139431
143916
146770
147914
146427
139845
134296
133341
131370
127820
125998
125991
125191
122940
118673
111917
105201
98074.3
87527.5
74777.5
68052.7
68040.2
66958.4
64056
60419.2
57362.6
55585.8
56905.2
61636.2
34268.8
106561
109600
111952
114401
117062
119792
122414
122790
121723
122322
124985
128353
129540
131395
131626
132793
139407
145014
149775
153889
158019
162462
167349
172666
178242
183920
189636
195362
201103
206855
212521
217950
222960
227435
231342
234674
237399
239390
240498
240671
240040
238768
236967
234657
231752
227941
222893
217135
209594
195972
177214
161025
155129
158291
161762
160128
160224
163708
160438
156733
158331
160281
161488
162068
160618
153574
146663
136728
129474
133857
139493
144001
146842
147888
146193
139803
134445
133273
131216
127795
126079
126031
125213
122904
118532
111862
105104
97798.9
87214.4
74717.6
68010.3
67845
66901.1
64037.2
60446.7
57475.9
55768.8
57021.4
60841.8
32914.9
)
;

boundaryField
{
    inlet
    {
        type            calculated;
        value           nonuniform List<scalar> 
40
(
105845
105645
105504
105662
106224
107071
108093
109161
110185
111177
112102
112934
113646
114262
114750
115065
115178
115179
115264
115407
115481
115424
115281
115010
114602
114080
113445
112725
111961
111119
110261
109412
108631
107969
107320
106763
106423
106334
106425
106561
)
;
    }
    outlet
    {
        type            calculated;
        value           nonuniform List<scalar> 
40
(
-0.4905
-0.4905
-0.4905
-0.4905
-0.4905
-0.4905
-0.4905
-0.4905
-0.4905
-0.4905
-0.4905
-0.4905
-0.4905
-0.4905
-0.4905
-0.4905