/*--------------------------------*- C++ -*----------------------------------*\
| =========                 |                                                 |
| \\      /  F ield         | foam-extend: Open Source CFD                    |
|  \\    /   O peration     | Version:     5.0                                |
|   \\  /    A nd           | Web:         http://www.foam-extend.org         |
|    \\/     M anipulation  |                                                 |
\*---------------------------------------------------------------------------*/
FoamFile
{
    version     2.0;
    format      ascii;
    class       volScalarField;
    location    "0.055";
    object      pd;
}
// * * * * * * * * * * * * * * * * * * * * * * * * * * * * * * * * * * * * * //

dimensions      [1 -1 -2 0 0 0 0];

internalField   nonuniform List<scalar> 
4000
(
105846
109853
112439
114637
116675
118898
121168
123575
124976
126122
130226
134835
137687
142151
147558
154620
162354
167451
173027
179318
184916
185969
184298
186451
189006
191596
195463
199912
203345
203568
206446
212548
217019
219046
221584
225818
229857
233083
232207
227822
223126
220991
221890
221094
217963
214301
210078
203763
197994
193281
188163
181239
174944
172397
171638
170831
169590
167760
164262
159935
157554
155859
152410
148142
145216
144766
144782
144684
145522
146827
147482
147569
146166
142723
136975
132505
130971
129966
127984
123817
119465
116662
113304
109594
107707
104087
98327.7
93726.2
88985.6
82270.9
76057.8
72023
67249.3
60697.5
53354.2
46138.4
37669.6
26470.6
14441.6
4849.37
105645
109746
112302
114528
116623
118817
121043
123584
125034
126094
130240
134992
137711
142126
147498
154452
162343
167354
172955
179323
184984
185942
184165
186590
189100
191471
195392
200050
203503
203570
206408
212561
217042
218982
221496
225776
229699
232990
232234
227794
223066
221027
221917
221058
217912
214234
210037
203779
198027
193305
188226
181347
175028
172429
171686
170826
169502
167713
164305
159952
157514
155899
152474
148140
145277
144927
144863
144649
145464
146848
147438
147468
146110
142722
136952
132522
130970
129907
127882
123791
119495
116817
113299
109441
107587
104093
98268.2
93655.1
88980.3
82258.1
76086.3
72080.5
67268.6
60671.7
53340.7
46136.4
37819.7
26534.1
14285.8
4773.86
105505
109692
112262
114559
116637
118609
120952
123771
124907
125965
130405
135028
137647
141935
147457
154355
162151
167444
173189
179196
184859
185979
184152
186725
189213
191281
195309
200414
203447
203336
206398
212539
216986
219115
221549
225617
229584
233036
232341
227737
222906
221086
221978
221085
217875
214067
209946
203852
198068
193291
188215
181446
175066
172359
171671
170764
169359
167688
164358
159951
157491
155981
152519
148027
145296
145104
144901
144572
145314
146896
147491
147441
146084
142748
136932
132431
130914
129895
127825
123756
119465
116877
113339
109330
107522
104086
98207
93601.5
88980.5
82231.3
76138.9
72205.5
67341.3
60658.5
53331.6
46139.7
38071.2
26728.4
13914.1
4512.98
105663
109664
112263
114786
116744
118549
120860
123788
124821
125962
130551
134801
137494
141659
147231
154598
162286
167381
173108
179233
184737
185938
184445
186977
188982
191065
195508
200799
203159
202982
206383
212511
216949
219280
221792
225423
229295
233124
232479
227538
222681
221172
222140
221176
217744
213813
209786
203955
198139
193290
188132
181520
175076
172198
171497
170587
169242
167699
164403
159877
157540
156082
152481
147803
145304
145357
144945
144369
145131
146928
147645
147449
146029
142750
136984
132362
130849
129917
127771
123592
119382
116910
113348
109263
107469
104180
98241.9
93569.1
88902.6
82132.3
76278.7
72395
67410.5
60558.5
53252.1
46285.3
38455.1
26844.8
13547
4302.98
106224
109805
112398
114938
116875
118580
120825
123773
124782
126061
130453
134572
137286
141356
147308
155148
162663
167191
172800
179462
184704
186009
184903
186673
188595
191076
195885
200982
202766
202705
206446
212295
216858
219693
222098
225060
229046
233261
232523
227262
222387
221280
222386
221336
217573
213587
209611
204119
198302
193293
187945
181552
175050
171943
171278
170399
169181
167914
164452
159679
157667
156217
152353
147474
145277
145764
145181
144190
144796
146935
147916
147513
145914
142737
137097
132364
130801
129987
127759
123356
119283
116962
113373
109220
107599
104471
98401.8
93549.9
88730.8
81961
76478.5
72597.2
67460.9
60476.4
53172
46518.8
38901.5
27076.2
13025.4
3909.74
107072
109907
112495
115154
117122
118691
120817
123644
124757
126066
130284
134401
137085
141296
147522
155819
162994
167159
172895
179772
184444
186174
185505
186040
188171
191377
196281
200751
202113
202534
206731
212180
216787
220188
222228
224664
228903
233323
232500
226937
222079
221390
222694
221619
217713
213422
209446
204367
198497
193191
187771
181587
175038
171482
171012
170324
169336
168412
164615
159394
157592
156256
152147
147037
145195
146252
145658
144088
144445
146813
148150
147692
145773
142682
137163
132425
130734
129960
127678
123101
119132
116996
113358
109267
107948
104912
98614.5
93497.5
88467
81742.1
76652.5
72759.7
67410.2
60534.8
53331.3
46806.1
39314.3
27400.2
12427.9
3289.83
108094
110139
112584
115298
117408
118948
120827
123561
124836
125980
129986
134246
137032
141321
147806
156346
163479
167528
172884
179759
184346
186217
185938
185896
187789
191655
196644
200104
201086
202591
207217
212156
216749
220397
222288
224409
228775
233446
232479
226588
221770
221399
223045
222018
217937
213380
209450
204794
198800
193118
187602
181632
175012
170864
170741
170406
169658
168935
164813
159124
157331
156210
151866
146534
145019
146696
146253
144032
144116
146753
148359
147805
145623
142508
137176
132516
130741
129949
127605
122884
118945
116911
113368
109422
108357
105331
98805.2
93471.8
88148.1
81451.2
76774.6
72843.7
67440.3
60763.2
53623.6
47076.1
39588.6
27765.6
11782.8
2463.9
109162
110423
112749
115468
117625
119308
120985
123377
124877
125961
129531
133945
137155
141550
148219
156616
163811
168236
173050
179486
184380
186101
186340
186015
187230
191788
196692
199297
200257
202728
207602
212157
216759
220547
222192
224100
228756
233653
232521
226282
221537
221502
223447
222409
218106
213344
209725
205376
199166
192956
187362
181729
174829
170258
170397
170538
170056
169318
164963
158896
156993
156049
151484
145990
144864
147080
146715
143987
143825
146799
148663
147781
145355
142284
137218
132646
130862
129989
127528
122717
118828
116844
113426
109650
108690
105691
99017.1
93404.9
87695
81042.4
76824.7
72992.7
67562
60996.8
53920.8
47264.3
39807.4
28264
10909.7
1446.8
110185
110683
112976
115706
117788
119602
121337
123357
124720
125884
128966
133451
137419
142116
148731
156886
163862
168689
173630
179490
183975
185892
186410
185795
187116
192224
196422
198299
199587
202763
207722
211970
216813
220763
222085
223831
228813
233882
232568
225960
221406
221742
223746
222704
218112
213258
210133
206050
199448
192700
187226
181733
174452
169669
170016
170619
170460
169573
164922
158679
156762
155832
150957
145443
144724
147441
147081
143943
143554
146853
149002
147791
145087
142138
137464
132802
130963
130122
127492
122604
118734
116752
113484
109883
108966
106052
99339.7
93189.2
87004.2
80583.1
76913.5
73218.1
67613.8
61238.1
54163.4
47225.6
39938.1
28777.4
9745.51
356.521
111177
110904
113194
115955
118035
119818
121598
123416
124577
125593
128476
133108
137460
142791
149569
156916
163974
169318
173790
179150
183618
185757
186267
185638
187390
192451
196137
197317
198778
202498
207601
211933
216772
220975
222139
223607
228931
234146
232440
225607
221480
222117
223932
222849
218100
213229
210703
206774
199697
192427
187141
181635
173886
168988
169636
170681
170788
169763
164754
158522
156661
155559
150353
145001
144704
147776
147337
143869
143285
146973
149287
147821
144906
142120
137792
132989
131069
130197
127396
122460
118629
116645
113523
110100
109247
106463
99626.1
92911.2
86191
80187
77011.1
73347.2
67726.3
61516.2
54111.9
46788.7
40060.7
29327.8
7852.35
-1400.41
112103
111080
113394
116185
118318
120061
121709
123354
124500
125310
127848
132859
137659
143270
150636
157139
163748
170063
174042
178433
183236
185416
185963
185836
187586
192251
195781
196564
198013
202052
207282
212085
216895
221034
222233
223653
229077
234236
232172
225398
221826
222682
224170
222849
217897
213327
211307
207497
199882
192139
187063
181441
173192
168233
169242
170727
171049
169919
164599
158397
156593
155203
149775
144713
144811
148114
147574
143705
142975
147175
149553
147751
144758
142250
138147
133203
131209
130192
127284
122288
118437
116591
113662
110362
109543
106813
99652.6
92338.1
85417.8
80045.3
77151
73479.6
67855
61593.5
53837.4
46325.5
40346.1
29435.2
5712.66
-2995.54
112934
111201
113543
116404
118611
120317
121792
123213
124376
125127
127306
132464
138009
143991
151380
157511
163767
170443
174291
177974
182492
184885
185703
185863
187834
192157
195133
195798
197627
201913
207088
212153
217001
221002
222405
223965
229267
234299
231870
225291
222428
223300
224387
222786
217782
213571
211935
208172
200063
191856
186893
181159
172390
167402
168853
170732
171248
169993
164471
158338
156482
154834
149321
144550
144994
148440
147845
143527
142680
147351
149826
147594
144665
142474
138448
133377
131292
130184
127081
121964
118185
116723
113970
110667
109804
106907
99396.9
91642.4
84795.5
80023.1
77268.5
73607.8
67944.6
61498.3
53511
45918.9
40307.3
29156.3
3650.03
-4551.57
113646
111318
113658
116544
118839
120546
121840
123028
124170
124932
126947
132125
138216
144842
151989
157888
164022
170388
174452
177752
181672
184186
185225
185740
188135
191992
194622
195339
197294
201929
207100
212191
217076
220904
222602
224402
229510
234412
231834
225375
222989
223890
224651
222724
217777
213891
212592
208733
200166
191572
186597
180820
171518
166539
168516
170728
171425
170053
164335
158280
156425
154577
149001
144444
145165
148785
148203
143364
142489
147506
150017
147538
144635
142691
138818
133585
131343
130050
126891
121642
117862
116995
114551
110910
109803
106794
98945.7
90874.7
84395.7
80249.4
77431.7
73652.4
68096.8
61266.4
53000.6
45435.1
39902.2
28835.2
1930.79
-6101.81
114262
111366
113706
116655
119037
120788
121834
122807
124004
124740
126708
132019
138427
145416
152569
158271
164253
170258
174243
177345
181043
183598
184592
185715
188491
191810
194265
194953
197007
201988
207185
212263
217189
220946
222924
224919
229784
234551
232040
225587
223447
224606
225068
222726
217873
214241
213225
209312
200197
191155
186112
180410
170667
165601
168084
170709
171661
170203
164189
158165
156462
154441
148828
144388
145142
149085
148702
143295
142231
147444
150319
147611
144591
142919
139074
133922
131338
129828
126720
121473
117625
117093
115252
111312
109710
106600
98545.6
90031.4
84234.1
80547.6
77489.6
73629.8
68055.3
61098.7
52504.7
45071
39499.2
28067.1
567.591
-7309.25
114751
111393
113704
116740
119277
120930
121778
122610
123852
124510
126603
132114
138589
145658
152784
158383
164538
170154
173825
176899
180396
182939
184063
185712
188824
191766
193944
194477
196793
202145
207392
212390
217406
221106
223292
225708
230203
234646
232396
225924
223850
225579
225845
222663
217998
214570
213845
209979
200239
190558
185471
180090
169947
164462
167239
170535
171965
170453
164180
158185
156459
154480
148633
144224
145113
149398
149169
143487
141755
146908
150638
147957
144541
143056
139365
134176
131395
129548
126805
121484
117282
117073
116153
112032
109467
106038
98291.9
89600.2
83993.1
80815
77487.7
73285.8
67882.7
60858.9
52172.2
44917.2
39183.1
27149.5
-521.834
-8206.73
115065
111419
113644
116784
119462
121099
121827
122452
123721
124431
126550
132149
138704
145746
152753
158473
164592
169796
173361
176380
179503
182188
183649
185546
188995
191815
193708
194159
196874
202201
207747
212647
217878
221415
223490
226717
231011
234763
232536
226555
224601
226762
226779
222614
217980
214753
214510
210775
200554
190025
184543
179605
169263
163396
166165
169968
172159
170841
164530
158297
156371
154323
148653
144109
145003
149753
149522
143839
141359
146108
150690
148541
144787
142926
139338
134414
131685
129187
126572
121973
117299
116841
116578
112823
109458
105326
98005.4
89413.5
83876.2
80945
77583.6
72780.5
67282.5
60540.8
51924.7
44774.1
38959.3
26418.8
-1450.73
-8920.89
115179
111534
113663
116876
119525
121276
121945
122123
123628
124553
126443
132129
138824
145804
152605
158323
164364
169276
172698
175776
178437
181351
183289
185307
188893
191972
193661
194283
197124
202365
208325
213021
218646
221957
223698
227433
232189
235147
232441
227349
225805
228142
227402
222722
218090
215000
215184
211417
200972
189697
183457
178713
168676
162480
164659
168796
172124
171417
165074
158671
156150
154184
148997
144091
144894
150204
150028
144431
141168
145013
150129
149042
145512
142772
139112
134591
132014
128792
125969
122817
117736
116811
116686
113140
109665
104883
97590.3
89195.7
83856.6
80935.7
77636.1
72603.5
66517.5
59885.9
51876.8
44747.2
38572.6
25825.2
-1929.98
-9232.22
115180
111659
113797
116988
119578
121520
122002
121710
123561
124844
126419
132144
138701
145870
152516
157894
163815
168652
171968
174867
176991
180417
183278
184824
188656
192109
194204
195409
197304
202857
209129
213579
219641
222752
224426
227625
232809
236240
232888
228325
227065
229192
228285
223450
218283
215459
215790
211608
201185
189569
182178
177003
168035
161408
162873
167837
171957
171855
165659
158916
156081
154423
149503
144622
145227
150264
150124
144870
141322
143908
148898
149194
146561
143404
138820
134612
132212
128395
125350
123361
118493
116907
116701
113556
109679
104746
97265.9
88946.2
83801.9
80740.1
77519.2
72519
65915.1
59236.6
51816.3
44795.1
38358.4
25305.8
-1772.26
-9065.27
115265
111760
113793
116916
119813
121869
121964
121450
123501
124935
126584
132099
138390
145879
152286
157200
162810
167647
171393
173942
175378
179262
183506
184619
187943
192276
195058
196734
198193
203913
209561
214696
221120
223859
225298
227579
233486
237432
234117
229487
228456
230392
229038
224442
219082
216520
216110
211060
200802
189466
180671
174517
166673
159898
161510
167412
171452
171618
165909
159384
156175
154561
150244
145763
145768
149812
149837
145151
141404
142944
148009
149071
146937
143791
138996
134837
132167
128257
124736
123494
119595
117339
116451
113549
109703
104763
96859.2
88755
83964.8
80722.6
77199.6
72274
65700.7
58764
51747.2
44790.7
38128.7
25116.9
-1171.35
-8603.07
115408
111764
113749
116921
120141
122220
121975
121401
123398
124594
126599
132255
138095
145426
151799
156131
161393
166418
170618
173297
174436
177845
183023
185025
187494
191679
195888
198357
199994
205386
210290
216060
222453
224888
226429
228391
234144
238281
235436
231411
230229
231262
229718
225571
220670
217823
215947
210334
200297
188900
179313
171915
164286
158293
159597
166527
171237
170958
165805
159610
156180
154974
151272
146963
146799
149837
148961
145012
140947
141496
147102
149402
147668
143852
139084
135513
132400
127736
123944
123729
121264
118000
116570
113430
109811
104972
96103.1
88254.2
83804.6
81013
77098
72213.9
65917.9
58548.8
51529
44785.8
38043.4
25115.6
-161.874
-7876.83
115481
111839
113756
117108
120518
122408
122016
121614
123239
124205
126810
132083
137736
144926
150870
154821
160044
165376
169166
171827
173714
176929
181963
185149
187871
191119
196066
199972
201654
206695
211989
217598
223190
225786
227587
229999
235046
238639
236782
233425
231985
232105
230494
226811
222352
219002
215997
209851
199753
188150
177839
169360
162238
156846
157434
165111
171126
171299
166449
159461
155988
155839
152557
148196
147910
149707
148738
144766
139334
139256
145999
149906
148687
144092
139268
136289
132750
127472
123718
124276
122823
119094
117211
113434
109865
104887
95948
87856.2
83393.7
81697.4
77354.8
72114.9
65846.1
58676.6
51775.1
44773.6
38075.2
25565.4
1130.46
-6990.81
115424
111846
113907
117303
120766
122623
122395
121862
122660
123643
127321
132205
136951
143954
149552
153748
158618
163521
167193
170024
172412
175990
180922
184524
187649
191403
196468
200489
202908
207815
213340
218861
223928
226707
228798
231463
235897
239149
238143
235370
233665
233067
231397
228068
223906
220158
216323
209716
199397
187527
176555
167168
160373
155332
156073
164261
170854
171286
166984
159872
156055
156451
154418
150224
148738
149192
148334
144066
137962
137105
144470
150642
149914
145125
139709
136706
133240
127654
124097
124747
123869
120245
118345
114268
109881
104372
95915.7
87864.7
83524.8
82080.9
77509.6
72121.4
65495.8
58850.6
52580.6
45262.8
38281
26304.8
2656.01
-5902.94
115281
111810
114115
117489
120803
122789
122756
122037
122331
123415
127509
132187
136304
142959
148146
151830
156144
160958
164789
167889
170796
174584
179499
183567
187210
191358
196424
200741
203964
208833
214461
219924
224674
227616
229966
232757
236738
239767
239393
237145
235283
234137
232362
229295
225370
221386
216946
209908
199308
187069
175352
165114
158416
153901
155270
163278
170551
171423
166807
160035
155938
157243
156501
151777
149804
149027
147680
143760
136737
135261
143854
151621
150611
146013
140563
137238
133417
128167
125103
124990
124033
121323
119652
115749
110099
103562
95874.6
88218.8
84263.3
82224.6
77292
72212.8
65645.5
59340.2
53332.5
45925.7
38887.6
27428.2
4737.79
-4422.69
115011
111819
114192
117707
120848
122702
122960
122431
122065
123142
127536
131713
135417
141690
146587
149678
153544
158422
162347
165672
168972
173011
178000
182497
186619
191087
196176
200770
204656
209606
215302
220742
225347
228460
231053
233917
237549
240404
240514
238726
236802
235245
233337
230488
226777
222669
217782
210391
199506
186846
174261
163043
156449
152856
154885
162574
169764
170997
166515
160039
156296
158438
158327
152975
150483
148562
147223
143861
135927
134054
143199
151953
151102
146780
141802
137856
133151
128416
126409
125241
123680
122162
120991
117289
110796
103099
95487.2
88980.8
85139.8
82110.9
77428.3
72585.2
66037.7
59923.9
53902.3
46750.4
39865.8
28993.7
7656.34
-2407.69
114602
111865
114123
117696
120853
122582
123089
122768
122072
122707
126943
131604
134585
139708
144854
147490
151139
156171
160082
163586
167139
171355
176421
181315
185896
190641
195750
200531
204922
210052
215807
221272
225873
229203
231994
234907
238271
240989
241471
240083
238159
236308
234276
231608
228090
223932
218746
211134
200014
186937
173390
161113
154742
152308
154758
161879
168286
169997
166127
159836
157093
159938
159704
154509
151182
147976
147141
143586
134436
132941
142568
151846
151601
147563
142985
138546
133384
128712
127111
125489
123251
122914
122494
118424
111356
103027
95270
89744
85848.3
82050.3
77690.4
72777.5
66721.2
60643.7
54367.9
47595.7
40967.2
30733.4
11309.7
134.652
114080
111868
114042
117569
120676
122409
123169
123010
122274
122513
126028
131048
134081
137877
142685
145358
149024
154195
158087
161731
165453
169716
174872
180131
185143
190111
195234
200125
204822
210149
215969
221507
226202
229781
232746
235691
238859
241472
242235
241186
239308
237250
235123
232592
229248
225100
219777
212111
200856
187391
172745
159230
153417
151982
154678
161282
166577
168739
165629
159493
158100
161362
160613
155983
151852
147816
147300
142948
132789
132070
141823
151314
152068
148340
144050
139446
133867
129452
127911
125548
122876
123394
123695
119469
111921
102924
95457
90263.4
86054.9
81924.9
77738.5
73113.1
67415.8
61238.4
54928.9
48330.2
41919
32362.4
15245
2936.46
113446
111842
113973
117324
120383
122342
123220
123163
122375
122387
125501
130271
133573
136374
140350
143501
147319
152624
156506
160219
164014
168219
173466
179021
184393
189550
194726
199720
204603
210053
215949
221573
226395
230197
233318
236261
239282
241811
242758
241966
240149
237950
235718
233257
230065
225992
220716
213235
201992
188218
172332
157494
152458
152138
154675
160522
165423
167779
164908
159412
158736
161888
161174
157226
152645
148100
147495
142108
131403
131429
141134
150517
152109
148877
145097
140237
134214
130529
128967
125579
122697
123724
124502
120572
112779
103219
95809.1
90488.2
85942.1
81602.6
77533.8
73324.1
67949
61775.3
55520
49015.6
42756.3
33981.6
18907.8
5632.8
112725
111797
113838
117029
120078
122178
123274
123284
122361
122307
125183
129510
132806
135424
138702
141839
146012
151498
155423
159071
162838
166971
172251
178030
183723
189069
194287
199307
204262
209746
215698
221428
226398
230390
233645
236593
239527
241998
243044
242419
240663
238396
236050
233582
230465
226441
221274
214162
203309
189426
172200
156284
151919
152490
154666
159761
164470
167047
164515
159482
158954
161963
161692
158252
153323
148592
147657
141330
130482
130993
140386
149601
151806
149266
145996
140859
134691
131529
129784
125731
122682
123949
124846
121418
113848
104043
96331
90599.8
85657
81076.3
77045.4
73258
68287
62219.9
56050.7
49644.3
43580.3
35487.1
22256.3
8193.45
111961
111686
113630
116665
119736
121964
123207
123400
122391
122171
124801
128973
132085
134653
137507
140691
145196
150447
154555
158092
161817
165900
171230
177138
183004
188483
193746
198798
203793
209287
215254
221060
226157
230316
233712
236712
239603
242019
243121
242617
240932
238657
236230
233679
230561
226579
221523
214837
204639
190952
172536
155638
151617
152670
154666
159261
163831
166471
164241
159612
159179
162009
161933
158935
153993
149100
147774
140842
129969
130660
139708
148595
151284
149449
146652
141346
135231
132350
130349
126014
122830
124131
125115
122126
114844
105065
97023
90922.4
85500.5
80384.9
76218.5
72899.8
68461.9
62622.8
56603.7
50424.6
44788
37324.1
26065.2
10865.2
111120
111501
113369
116264
119344
121669
123031
123451
122546
122126
124438
128452
131467
133956
136606
139838
144591
149716
153656
157095
160986
165057
170361
176266
182203
187780
193097
198190
203237
208744
214700
220533
225710
230004
233544
236635
239515
241873
243006
242616
241037
238804
236338
233698
230570
226616
221565
215220
206035
193161
173523
155403
151533
152945
154791
158891
163365
165887
163873
159767
159404
162006
162006
159387
154762
149774
148060
140544
129413
130591
139113
147334
150627
149474
147220
141664
135511
132914
130782
126289
123043
124337
125273
122591
115680
106032
97734.2
91391.7
85502.9
79486
75110.6
72350.9
68545.7
63099.6
57321.6
51450.7
46377.7
40071
30949.6
14269.1
110262
111246
113079
115792
118924
121310
122791
123417
122645
122111
124064
127980
131015
133308
135984
139351
144038
149099
153135
156545
160343
164371
169598
175434
181373
187027
192412
197555
202664
208181
214095
219906
225120
229519
233195
236390
239278
241591
242750
242488
241054
238913
236463
233797
230693
226768
221692
215688
207702
195951
174894
155449
151782
153496
155114
158594
162961
165216
163217
159947
159653
161790
161900
159956
156023
150586
148732
140426
128636
130785
138472
146075
149948
149474
147806
141733
135404
133158
131027
126505
123282
124600
125331
122915
116387
106908
98438.4
91938.6
85631.3
78473.3
73867.7
71713.2
68539.1
63565.8
58054.7
52511.2
47982.2
43131
36701.1
18912.4
109413
110976
112726
115287
118471
120939
122540
123321
122679
122097
123697
127583
130632
132607
135266
138786
143467
148620
152791
156100
159770
163795
168924
174665
180556
186245
191693
196917
202116
207660
213531
219295
224510
228976
232754
236035
238933
241207
242384
242237
240956
238939
236546
233899
230839
226925
221824
216189
209280
198677
176139
155719
152532
154231
155713
158493
162375
164834
162786
159907
159760
161487
161815
160719
157573
151475
149369
140034
127890
131196
138064
144905
149278
149656
148133
141697
135106
133014
131135
126949
123796
124684
125623
123656
117280
108009
99432.3
92887.9
85985.5
77459.6
72659.6
71092.9
68492.5
64000.6
58766.6
53541.2
49464.3
46029.4
42630.4
23773.2
108632
110665
112370
114800
118053
120646
122271
123208
122657
122004
123405
127351
130289
131955
134410
137929
142755
148017
152240
155676
159299
163336
168354
173989
179828
185536
191040
196349
201643
207217
213044
218748
223943
228443
232290
235627
238525
240759
241941
241887
240748
238868
236564
233955
230914
226980
221869
216456
210120
200421
176828
156048
153228
154974
157137
159022
161944
164673
162261
159505
159330
160780
161694
161165
159264
152666
149542
139288
127401
131598
138096
144402
148666
149751
148038
141483
134924
132761
131246
127616
124463
124688
125689
124147
118069
109333
100821
94327.6
87058.3
76947
71569.6
70539.9
68418.5
64349.5
59371.7
54456.3
50782.7
48643.3
48148.9
28093.4
107970
110327
111989
114448
117787
120451
121957
123014
122580
121846
123245
127328
129910
131461
133568
136736
141859
147219
151646
155236
158867
162940
167894
173442
179219
184930
190482
195879
201270
206876
212658
218295
223454
227966
231851
235219
238103
240294
241472
241491
240482
238745
236539
233965
230924
226960
221876
216512
210264
201020
177056
156671
154123
155737
158241
159927
162269
164512
161136
158294
159255
160652
161564
161493
160487
153421
149236
138402
127320
132163
138370
144230
148184
149851
147892
140540
134618
133138
131444
128305
125050
124639
125737
124529
118666
110074
102202
95951.5
88412.9
76713.9
70389.6
70137.3
68287
64557.3
59819.3
55221.6
51938.6
50934.2
52902.8
31510.7
107321
109979
111721
114243
117589
120240
121754
122816
122415
121749
123284
127426
129618
131066
132741
135340
140873
146368
150953
154708
158459
162626
167548
173021
178740
184445
190044
195529
201014
206653
212393
217964
223081
227589
231491
234868
237727
239878
241047
241127
240234
238626
236513
233982
230946
226972
221931
216510
210069
200716
177093
157535
155014
156654
159461
160710
162323
163970
160234
157561
159047
160487
161415
161726
161226
153765
148678
137638
127602
132862
138650
144085
147681
149422
148236
140150
133773
133279
131461
128375
125675
125253
125705
124336
119459
111285
103195
96649.1
89097
76429.1
69417.8
69793.2
68046.8
64597.5
60112.8
55856.6
52952.2
52880.6
56724.6
33974.2
106764
109690
111642
114212
117366
119975
121744
122648
122170
121705
123446
127703
129420
130830
132105
134210
140052
145609
150333
154262
158157
162422
167331
172746
178413
184114
189754
195321
200890
206560
212266
217775
222847
227343
231250
234624
237456
239569
240727
240851
240053
238559
236542
234066
231046
227090
222075
216540
209830
199798
177165
158521
155527
157400
160557
160609
161785
164609
160078
156585
158753
160298
161299
161869
161526
153863
148046
137124
128058
133445
138939
143995
147282
148891
148090
139941
133425
133361
131515
128309
125993
125686
125580
123877
119428
112142
104767
97304.7
88738.3
75822.2
68777
69437.8
67741.4
64504.9
60278.1
56383.7
53845.7
54481.4
59527.3
35442.7
106423
109547
111711
114237
117087
119777
121886
122620
121903
121686
123789
127938
129330
130738
131625
133354
139497
145108
149928
153986
158004
162350
167257
172628
178255
183950
189622
195253
200890
206586
212264
217722
222754
227236
231143
234511
237316
239387
240525
240681
239960
238566
236637
234219
231225
227303
222280
216666
209661
198528
177462
159676
155613
158076
161708
160269
160867
164710
160088
156188
158496
160171
161261
161953
161467
153831
147495
136880
128532
133769
139169
143933
146983
148431
147523
139843
133629
133438
131569
128117
126008
125898
125422
123462
119227
112192
105417
98103.7
88236.3
75174.7
68417.1
68975.8
67413.7
64334.9
60356.4
56818.4
54629.4
55720.7
61291.2
35921.7
106334
109540
111744
114236
116971
119614
122165
122707
121680
121850
124204
128107
129339
130820
131375
132818
139234
144894
149762
153891
157985
162385
167292
172634
178232
183918
189608
195281
200964
206680
212345
217774
222781
227254
231159
234516
237282
239308
240433
240609
239944
238621
236758
234389
231425
227540
222499
216850
209577
197241
177947
160833
155173
158290
162232
160146
160345
164391
160206
156239
158307
160140
161296
161991
161187
153749
147154
136825
128922
133865
139323
143897
146793
148054
146780
139914
134212
133524
131593
127826
125824
125976
125293
123176
119065
111940
105085
98327.8
87979.2
74857.8
68174.8
68439.3
67130.3
64165.4
60399.2
57160
55240.4
56545.3
61998.2
35495.3
106425
109535
111831
114282
116954
119670
122338
122712
121636
122196
124605
128192
129422
131067
131401
132676
139257
144910
149753
153892
158023
162455
167354
172674
178253
183930
189634
195340
201057
206783
212444
217865
222866
227337
231242
234580
237314
239319
240434
240613
239975
238690
236867
234532
231596
227748
222715
217030
209619
196348
177633
161173
155207
158427
162111
160165
160165
164020
160412
156481
158197
160193
161374
162009
160840
153640
146890
136804
129299
133917
139431
143917
146770
147914
146427
139845
134296
133342
131370
127821
125998
125992
125191
122941
118674
111917
105201
98074.8
87528
74778
68053.2
68040.7
66958.9
64056.5
60419.6
57363.1
55586.3
56905.7
61636.7
34269.3
106562
109601
111952
114402
117063
119792
122415
122790
121723
122322
124985
128353
129540
131396
131627
132794
139407
145014
149775
153890
158019
162463
167350
172666
178242
183920
189636
195363
201104
206855
212521
217951
222961
227436
231343
234675
237399
239390
240498
240672
240041
238769
236967
234657
231753
227941
222894
217136
209595
195972
177215
161026
155129
158292
161763
160128
160225
163708
160438
156733
158332
160281
161488
162068
160618
153575
146663
136728
129474
133857
139494
144001
146843
147888
146194
139804
134446
133274
131216
127796
126079
126032
125213
122904
118533
111862
105104
97799.4
87214.9
74718.1
68010.8
67845.5
66901.6
64037.7
60447.2
57476.4
55769.3
57021.9
60842.3
32915.4
)
;

boundaryField
{
    inlet
    {
        type            zeroGradient;
    }
    outlet
    {
        type            fixedValue;
        value           uniform 0;
    }
    lowerWall
    {
        type            zeroGradient;
    }
    upperWall
    {
        type            zeroGradient;
    }
    frontAndBack
    {
        type            empty;
    }
}


// ************************************************************************* //
