/*--------------------------------*- C++ -*----------------------------------*\
| =========                 |                                                 |
| \\      /  F ield         | foam-extend: Open Source CFD                    |
|  \\    /   O peration     | Version:     5.0                                |
|   \\  /    A nd           | Web:         http://www.foam-extend.org         |
|    \\/     M anipulation  |                                                 |
\*---------------------------------------------------------------------------*/
FoamFile
{
    version     2.0;
    format      ascii;
    class       surfaceScalarField;
    location    "0.055";
    object      phi;
}
// * * * * * * * * * * * * * * * * * * * * * * * * * * * * * * * * * * * * * //

dimensions      [0 3 -1 0 0 0 0];

internalField   nonuniform List<scalar> 
7860
(
0.000920526
0.00407947
0.0699864
-0.069057
0.131932
-0.0619379
0.186156
-0.0542153
0.218394
-0.032229
0.2325
-0.0140981
0.250667
-0.0181572
0.269545
-0.0188679
0.264006
0.00555017
0.234252
0.029765
0.219036
0.015228
0.214396
0.00465336
0.179015
0.0353937
0.152485
0.0265442
0.13592
0.0165797
0.115852
0.0200835
0.153541
-0.0376724
0.199474
-0.0459154
0.248398
-0.048907
0.309029
-0.0606134
0.364283
-0.0552361
0.371638
-0.00733721
0.335285
0.0363704
0.341409
-0.00610728
0.329377
0.0120501
0.283979
0.0454142
0.283627
0.000368284
0.303172
-0.0195287
0.270005
0.0331832
0.216725
0.0532946
0.199746
0.0169927
0.214276
-0.014517
0.254847
-0.0405582
0.280453
-0.0255943
0.280048
0.000415796
0.299383
-0.0193257
0.352163
-0.0527713
0.438526
-0.0863551
0.493275
-0.0547412
0.476803
0.0164784
0.438537
0.0382709
0.420128
0.0184144
0.433679
-0.0135466
0.46407
-0.0303877
0.491502
-0.0274285
0.527079
-0.0355738
0.574109
-0.0470281
0.578714
-0.00460316
0.562006
0.0167096
0.541615
0.0203931
0.527293
0.0143233
0.491844
0.0354508
0.411595
0.0802503
0.345385
0.0662106
0.326911
0.0184754
0.338569
-0.011657
0.368914
-0.0303447
0.398689
-0.0297741
0.399781
-0.00109135
0.376406
0.0233758
0.369425
0.00698139
0.381819
-0.012393
0.380237
0.00158187
0.341959
0.0382784
0.289922
0.0520369
0.258384
0.0315369
0.233756
0.0246274
0.211658
0.0220975
0.191188
0.0204691
0.20623
-0.0150431
0.247177
-0.0409495
0.30928
-0.0621047
0.377601
-0.0683232
0.434198
-0.0565994
0.42349
0.0107052
0.367224
0.0562622
0.34029
0.0269313
0.371792
-0.0315056
0.421373
-0.0495855
0.41
0.01137
0.35895
0.0510449
0.351013
0.00793335
0.378528
-0.0275193
0.41269
-0.034167
0.469819
-0.0571342
0.498978
-0.0291637
0.498348
0.000625812
0.514993
-0.0166493
0.539107
-0.0241181
0.525501
0.0136028
0.495147
0.0303496
0.504237
-0.00909259
0.543482
-0.0392486
0.578842
-0.0353624
0.583591
-0.00475193
0.582187
0.00140162
0.623777
-0.0415907
0.628167
-0.00439147
0.5505
0.0776654
0.0130173
0.112546
-0.103458
0.253162
-0.209654
0.394211
-0.202969
0.5235
-0.183487
0.59922
-0.107931
0.622109
-0.0369683
0.664885
-0.0609135
0.702569
-0.0565302
0.651291
0.0568514
0.630274
0.0508063
0.617439
0.028088
0.522061
0.100059
0.47533
0.0821513
0.469977
0.0319254
0.508575
-0.0219887
0.574137
-0.0454463
0.573221
-0.0367238
0.647936
-0.120597
0.766919
-0.167857
0.803483
-0.097145
0.804806
-0.0565256
0.834021
-0.0365193
0.861762
0.00866277
0.821519
0.0341684
0.80453
0.0290723
0.802933
0.0470427
0.800257
0.00307503
0.779513
0.00124512
0.658886
0.15384
0.574468
0.137739
0.587765
0.00372184
0.590564
-0.0172921
0.616339
-0.0663096
0.718104
-0.127338
0.769472
-0.0509329
0.767671
-0.0175064
0.853412
-0.138497
0.978609
-0.211538
1.0451
-0.12122
1.0474
0.0141861
1.02539
0.0602918
1.0299
0.0139187
1.05873
-0.0423731
1.09861
-0.0702631
1.13884
-0.067644
1.17943
-0.0761638
1.25779
-0.125383
1.29868
-0.0454911
1.28419
0.0312
1.24212
0.0624698
1.18049
0.0759613
1.10515
0.110793
0.994003
0.191396
0.891633
0.168582
0.84765
0.0624605
0.854463
-0.0184677
0.917193
-0.0930729
0.966121
-0.0787006
0.949698
0.0153327
0.917023
0.0560523
0.912251
0.0117537
0.90101
-0.00115141
0.865367
0.0372257
0.80788
0.0957647
0.733756
0.126161
0.69236
0.0729314
0.660088
0.0568978
0.633846
0.0483374
0.60115
0.0531613
0.625051
-0.0389469
0.706822
-0.122725
0.809179
-0.164466
0.898346
-0.157496
0.980173
-0.138432
0.984936
0.0059356
0.921466
0.119725
0.916035
0.0323542
0.995292
-0.110771
1.06842
-0.122725
1.03368
0.0461012
0.926242
0.158476
0.882531
0.0516353
0.937482
-0.0824799
1.05389
-0.15058
1.15643
-0.159688
1.19827
-0.0710177
1.22529
-0.0264038
1.25731
-0.0486721
1.25955
-0.0263724
1.22931
0.0438348
1.20403
0.0556193
1.21664
-0.0217023
1.26244
-0.0850537
1.30039
-0.073324
1.29898
-0.00334506
1.28231
0.0180651
1.30823
-0.0675139
1.32896
-0.0251143
1.23205
0.174568
0.0615834
0.210973
-0.309422
0.371616
-0.37028
0.538839
-0.370176
0.710712
-0.355343
0.828453
-0.225656
0.914266
-0.122763
0.945836
-0.0924644
0.914905
-0.025579
0.929545
0.0422317
0.938364
0.0420101
0.859076
0.107399
0.761968
0.197192
0.737404
0.106739
0.753044
0.0163105
0.797271
-0.0661889
0.939775
-0.187921
1.02524
-0.12216
1.00102
-0.0963495
0.999414
-0.166218
1.09689
-0.194591
1.14854
-0.10815
1.17265
-0.0606013
1.21858
-0.0372373
1.18527
0.0675144
1.10847
0.1059
1.13036
0.0251788
1.14338
-0.0099139
1.05166
0.0929922
0.952895
0.252629
0.91684
0.17382
0.889952
0.0306338
0.898548
-0.0258652
0.964825
-0.132565
1.03437
-0.196858
1.08792
-0.104464
1.09011
-0.0196852
1.10198
-0.150348
1.191
-0.300552
1.26576
-0.195959
1.27031
0.00964308
1.28208
0.0485324
1.30106
-0.00505509
1.35364
-0.0949466
1.38268
-0.0992959
1.39398
-0.0789359
1.46358
-0.145761
1.57989
-0.241683
1.61976
-0.0853593
1.62101
0.029953
1.59947
0.0840143
1.52689
0.148545
1.4296
0.208079
1.31873
0.302274
1.22229
0.265028
1.15984
0.124907
1.18126
-0.0398886
1.26716
-0.178969
1.3109
-0.122441
1.28631
0.0399311
1.241
0.101357
1.22842
0.0243336
1.18505
0.0422239
1.12638
0.0958919
1.06555
0.156591
1.00667
0.18505
1.01026
0.0693401
1.00824
0.0589061
1.00113
0.0554505
0.976532
0.0777558
0.985657
-0.0480757
1.05629
-0.193365
1.13792
-0.246102
1.21236
-0.231941
1.29581
-0.221887
1.3343
-0.0325604
1.34103
0.112993
1.37405
-0.000672904
1.44005
-0.176787
1.4626
-0.145278
1.39833
0.110364
1.27684
0.279948
1.23097
0.097503
1.30029
-0.151816
1.43273
-0.283026
1.55555
-0.282519
1.64824
-0.163715
1.71165
-0.0898315
1.72226
-0.0592871
1.66622
0.0296522
1.61481
0.0952395
1.61096
0.059467
1.60675
-0.0174987
1.61203
-0.0903413
1.60871
-0.0700112
1.56754
0.0378195
1.56483
0.0207742
1.56353
-0.0662157
1.50373
0.0346836
1.47154
0.206757
0.0285689
0.262114
-0.566529
0.465672
-0.573823
0.631995
-0.536485
0.752623
-0.475956
0.881176
-0.354194
0.973526
-0.215098
1.01686
-0.13578
1.04395
-0.0526477
1.07224
0.0139585
1.05767
0.0565979
0.952997
0.212097
0.928068
0.222142
0.919291
0.115538
0.95563
-0.0200052
1.09931
-0.209845
1.21796
-0.306542
1.26927
-0.173439
1.26378
-0.0908287
1.24923
-0.151641
1.3242
-0.269537
1.38911
-0.173035
1.44536
-0.116829
1.42813
-0.0199784
1.2745
0.221165
1.2411
0.139324
1.30257
-0.036263
1.24416
0.0485168
1.11001
0.227167
1.07481
0.287854
1.11941
0.129252
1.11222
0.0378436
1.06289
0.0234866
1.10551
-0.175169
1.19486
-0.286189
1.19353
-0.103116
1.15176
0.0220995
1.18994
-0.188518
1.26474
-0.375336
1.32778
-0.25899
1.37539
-0.0379546
1.38895
0.0349793
1.43799
-0.0540876
1.50484
-0.161791
1.52339
-0.117835
1.54799
-0.103534
1.64764
-0.245408
1.7485
-0.342543
1.80906
-0.145911
1.84324
-0.00422078
1.81682
0.110431
1.73811
0.227257
1.63234
0.313858
1.51594
0.418677
1.42822
0.35275
1.39265
0.160474
1.40656
-0.0537973
1.47128
-0.243682
1.53829
-0.189455
1.52367
0.0545503
1.4592
0.16583
1.41741
0.0661281
1.36391
0.095717
1.29994
0.159869
1.21861
0.237921
1.15514
0.248513
1.19686
0.0276176
1.25581
-3.86407e-05
1.25333
0.0579281
1.19244
0.138644
1.18836
-0.0440047
1.26105
-0.266056
1.32378
-0.308836
1.38918
-0.297347
1.46862
-0.301331
1.53065
-0.0945976
1.58241
0.0612317
1.62209
-0.0403636
1.66911
-0.22381
1.68206
-0.158238
1.63298
0.159436
1.53997
0.372944
1.49898
0.138491
1.56679
-0.21964
1.67609
-0.392333
1.79487
-0.401305
1.91711
-0.28597
1.97869
-0.151417
1.95842
-0.0390238
1.86303
0.125037
1.79704
0.161218
1.79038
0.0661232
1.75396
0.0189135
1.72317
-0.0595524
1.72321
-0.0700569
1.68964
0.0713856
1.64483
0.0655824
1.57649
0.00211381
1.50443
0.106751
1.43722
0.27396
0.0463936
0.255241
-0.816763
0.434602
-0.75317
0.586166
-0.688036
0.756362
-0.646137
0.923901
-0.521717
1.03542
-0.326598
1.0733
-0.173644
1.08861
-0.0679382
1.11715
-0.014563
1.06833
0.105432
1.0387
0.241751
1.05706
0.203799
1.09179
0.0808378
1.1939
-0.122094
1.26482
-0.280739
1.30928
-0.350977
1.33376
-0.197883
1.39356
-0.150613
1.45627
-0.214326
1.45314
-0.266378
1.43425
-0.154124
1.48329
-0.165851
1.49242
-0.0290844
1.38321
0.330399
1.36265
0.159907
1.36325
-0.0368323
1.25898
0.152802
1.12012
0.366051
1.08714
0.320854
1.15456
0.0618517
1.18104
0.0113849
1.18433
0.0202211
1.20571
-0.196535
1.23012
-0.310578
1.18435
-0.0573376
1.17936
0.0271111
1.22992
-0.239067
1.2615
-0.406908
1.34375
-0.341231
1.4084
-0.102595
1.44026
0.00313506
1.50763
-0.121451
1.56945
-0.223604
1.61131
-0.159689
1.68592
-0.178144
1.77454
-0.334015
1.83057
-0.39857
1.90938
-0.224726
1.93549
-0.0303262
1.90157
0.144358
1.83656
0.292271
1.74165
0.40877
1.63393
0.526399
1.51597
0.470713
1.47223
0.204208
1.52068
-0.102243
1.58112
-0.304119
1.66679
-0.275125
1.72406
-0.00272028
1.65194
0.237958
1.52088
0.197188
1.45473
0.161863
1.39805
0.216551
1.29231
0.343655
1.23454
0.306284
1.27939
-0.0172265
1.35325
-0.0739047
1.36563
0.0455434
1.33296
0.171314
1.3108
-0.0218458
1.34481
-0.300074
1.40631
-0.370341
1.45582
-0.346855
1.51847
-0.363988
1.59768
-0.173808
1.65995
-0.00105162
1.68359
-0.0640058
1.71604
-0.256273
1.75119
-0.193393
1.74143
0.169194
1.69073
0.42363
1.65454
0.174671
1.69537
-0.260477
1.78234
-0.479314
1.89342
-0.512392
2.01682
-0.409378
2.06552
-0.200124
2.01004
0.0164558
1.90408
0.230981
1.85063
0.214665
1.81661
0.100142
1.74987
0.0856458
1.68294
0.00736809
1.67161
-0.0587267
1.67313
0.0698586
1.58345
0.155262
1.40695
0.178611
1.25662
0.257077
1.17247
0.358111
0.0540811
0.251542
-1.0633
0.443521
-0.945137
0.576861
-0.821364
0.700143
-0.769405
0.852681
-0.674241
0.996799
-0.470701
1.0517
-0.228533
1.10747
-0.123688
1.15971
-0.0667791
1.11745
0.147708
1.07841
0.280816
1.13359
0.148634
1.22131
-0.00685336
1.27301
-0.173773
1.30285
-0.310546
1.29416
-0.34226
1.38575
-0.289457
1.48144
-0.246276
1.42768
-0.160547
1.31205
-0.15072
1.30937
-0.151426
1.31705
-0.173511
1.32049
-0.0324956
1.3962
0.254703
1.34913
0.207004
1.25174
0.0605762
1.1623
0.242266
1.03828
0.490091
0.994968
0.364188
1.04394
0.0129016
1.08386
-0.0285193
1.11855
-0.0144512
1.11936
-0.197319
1.07814
-0.269345
1.08899
-0.0681758
1.12158
-0.00546186
1.13395
-0.251421
1.20357
-0.476515
1.30462
-0.442271
1.38
-0.177974
1.44048
-0.0573341
1.50863
-0.189592
1.58574
-0.300712
1.65576
-0.229704
1.70218
-0.224561
1.75759
-0.389413
1.83839
-0.47937
1.94858
-0.334912
1.99183
-0.0735729
1.95385
0.182343
1.88387
0.362251
1.80435
0.488286
1.70206
0.628694
1.57618
0.5966
1.52147
0.258914
1.54532
-0.126095
1.57646
-0.335248
1.6252
-0.323869
1.69357
-0.0710928
1.6569
0.274631
1.53023
0.323861
1.47365
0.218439
1.41693
0.273276
1.32689
0.433693
1.29032
0.342857
1.33025
-0.0571603
1.38784
-0.131499
1.3824
0.0509864
1.34708
0.206632
1.36695
-0.0417176
1.37478
-0.307916
1.37192
-0.367478
1.37177
-0.346714
1.41237
-0.404593
1.52743
-0.288869
1.60948
-0.0831078
1.65615
-0.110686
1.68926
-0.289388
1.72423
-0.228368
1.75671
0.136708
1.7492
0.431127
1.72206
0.201811
1.75369
-0.292116
1.80584
-0.531478
1.87088
-0.577439
1.96342
-0.501926
2.00582
-0.242527
1.96654
0.0557288
1.84643
0.351084
1.74543
0.315655
1.68842
0.157148
1.61989
0.154169
1.57417
0.0530813
1.55512
-0.0396813
1.51885
0.106131
1.35904
0.31507
1.11585
0.421792
0.907583
0.465347
0.787188
0.478505
0.0490568
0.228012
-1.2863
0.411355
-1.12847
0.561639
-0.971636
0.687413
-0.895166
0.800536
-0.78735
0.94601
-0.61616
1.05478
-0.33729
1.06743
-0.136317
1.08312
-0.0824549
1.09101
0.13984
1.05602
0.315823
1.0864
0.118277
1.19574
-0.11617
1.26742
-0.245426
1.26936
-0.312466
1.2253
-0.298173
1.24849
-0.312628
1.33527
-0.333041
1.30064
-0.125891
1.16213
-0.0121868
1.11453
-0.103811
1.08644
-0.145395
1.12309
-0.0691306
1.20473
0.173086
1.09893
0.312826
0.993563
0.165967
0.884619
0.35123
0.827427
0.547303
0.869116
0.322517
0.85328
0.0287553
0.835333
-0.0105537
0.889351
-0.0684502
0.924756
-0.232705
0.933742
-0.278314
0.933106
-0.0675237
0.929987
-0.00232843
0.981441
-0.302863
1.0683
-0.563365
1.17757
-0.551527
1.29342
-0.293814
1.41506
-0.178971
1.51162
-0.286148
1.56477
-0.35385
1.63689
-0.301817
1.68816
-0.275831
1.71765
-0.418896
1.8336
-0.595316
1.95343
-0.454739
1.97121
-0.0913524
1.90103
0.252523
1.85591
0.407376
1.80436
0.539836
1.6934
0.739656
1.57948
0.710522
1.49731
0.341088
1.47391
-0.102691
1.47371
-0.335048
1.48948
-0.339638
1.54678
-0.128399
1.55286
0.268554
1.45339
0.423329
1.39615
0.275685
1.35159
0.317833
1.30005
0.485234
1.31317
0.329741
1.35443
-0.0984247
1.3757
-0.152773
1.34944
0.0772498
1.30603
0.250036
1.32408
-0.0597736
1.33649
-0.320326
1.26854
-0.299529
1.21612
-0.294294
1.25771
-0.446196
1.3906
-0.421763
1.51372
-0.206232
1.55736
-0.15433
1.58023
-0.312269
1.59351
-0.241652
1.63928
0.0909363
1.68551
0.38489
1.67525
0.212059
1.67254
-0.289417
1.67849
-0.537432
1.69071
-0.589666
1.75111
-0.562337
1.80936
-0.300782
1.76365
0.101426
1.65596
0.458776
1.55854
0.41306
1.47532
0.240372
1.44022
0.189259
1.40066
0.0926402
1.33134
0.0296392
1.23044
0.207023
1.0245
0.521008
0.790195
0.656094
0.576225
0.679316
0.41598
0.638749
0.063158
0.193841
-1.47514
0.34884
-1.28346
0.489657
-1.11244
0.62158
-1.02708
0.716309
-0.882065
0.822008
-0.721845
0.9664
-0.481668
1.05104
-0.220938
1.03905
-0.0704563
1.02693
0.151983
1.01509
0.327678
1.02946
0.103936
1.13987
-0.226563
1.2185
-0.324032
1.20786
-0.301807
1.17119
-0.261481
1.11026
-0.251682
1.06286
-0.285619
1.05658
-0.119588
0.984504
0.0599053
0.824569
0.0561454
0.754793
-0.0755994
0.718008
-0.0323265
0.725595
0.165519
0.78806
0.250381
0.750422
0.203626
0.640752
0.460921
0.616083
0.571992
0.615851
0.322766
0.556458
0.0881648
0.526858
0.0190631
0.552571
-0.0941458
0.621593
-0.30171
0.677107
-0.333811
0.728674
-0.119075
0.7632
-0.0368399
0.80569
-0.34534
0.862937
-0.620601
0.962841
-0.651423
1.12416
-0.455122
1.30335
-0.358161
1.42351
-0.406298
1.45311
-0.383441
1.52048
-0.369189
1.58371
-0.339051
1.60494
-0.440117
1.72364
-0.714015
1.85852
-0.589616
1.86102
-0.0938575
1.79794
0.315606
1.78675
0.418572
1.75506
0.571524
1.63966
0.855065
1.50323
0.846954
1.40375
0.44057
1.32068
-0.0196187
1.27356
-0.287928
1.25262
-0.318697
1.27609
-0.151872
1.3363
0.208346
1.3128
0.446829
1.24461
0.343876
1.20069
0.361754
1.21012
0.475797
1.22863
0.311238
1.27476
-0.144558
1.31008
-0.188092
1.27116
0.11616
1.20395
0.317245
1.16465
-0.0204749
1.14817
-0.303847
1.10103
-0.252389
1.03378
-0.227048
1.05574
-0.468168
1.2127
-0.578727
1.35641
-0.349944
1.38708
-0.185003
1.38907
-0.314262
1.39944
-0.252033
1.45003
0.0403423
1.50821
0.326697
1.51743
0.20283
1.49673
-0.268718
1.44874
-0.489457
1.41183
-0.552762
1.41422
-0.564733
1.44815
-0.334718
1.38547
0.164099
1.31245
0.531787
1.27536
0.450144
1.23353
0.282197
1.20744
0.215345
1.1318
0.168282
1.02366
0.137775
0.871458
0.359223
0.641841
0.750622
0.413009
0.884925
0.188668
0.903656
0.0605398
0.766877
0.0270309
0.152896
-1.62303
0.281151
-1.4117
0.388675
-1.21996
0.508735
-1.14713
0.63081
-1.00413
0.716964
-0.807986
0.806957
-0.571647
0.909347
-0.323313
0.965692
-0.126784
0.940828
0.176864
0.951391
0.317134
1.008
0.0473424
1.00278
-0.221321
1.05475
-0.375988
1.09623
-0.343264
0.991747
-0.156981
0.947649
-0.207565
0.914869
-0.25282
0.716291
0.0790083
0.523683
0.252533
0.410512
0.169336
0.355849
-0.020918
0.313105
0.0104359
0.350653
0.127988
0.387546
0.213507
0.275907
0.315285
0.255935
0.480913
0.2906
0.537345
0.232874
0.380508
0.144592
0.176462
0.142382
0.0212885
0.238641
-0.190389
0.264048
-0.327101
0.319947
-0.389696
0.459623
-0.258736
0.528026
-0.105229
0.554068
-0.37137
0.586535
-0.653058
0.649454
-0.714334
0.848166
-0.653828
1.10598
-0.615965
1.23706
-0.537376
1.25686
-0.40324
1.29481
-0.407133
1.36338
-0.407614
1.43552
-0.512253
1.54606
-0.824557
1.66462
-0.708165
1.70979
-0.139029
1.66109
0.364313
1.6455
0.434166
1.64325
0.573776
1.52167
0.976642
1.33965
1.02898
1.21372
0.566499
1.09069
0.10341
0.986228
-0.183461
0.913632
-0.2461
0.911339
-0.149578
1.01772
0.101963
1.06457
0.39998
0.999186
0.409263
0.981134
0.379806
1.0564
0.400534
1.09139
0.276242
1.11221
-0.16538
1.14952
-0.225398
1.12533
0.140349
1.0377
0.404873
0.960046
0.057174
0.897054
-0.240857
0.846579
-0.201918
0.818108
-0.19858
0.827123
-0.477187
0.933908
-0.685516
1.0932
-0.509243
1.16441
-0.256215
1.13041
-0.28027
1.09766
-0.219291
1.14125
-0.0032518
1.20875
0.259192
1.24144
0.170125
1.23085
-0.258133
1.1632
-0.421814
1.08712
-0.476687
1.00856
-0.486182
0.9287
-0.254863
0.879865
0.212927
0.90445
0.507197
0.935388
0.419202
0.916783
0.300798
0.859067
0.273057
0.795395
0.23195
0.688529
0.244638
0.471547
0.576202
0.254433
0.967734
0.0599722
1.07938
-0.134543
1.09817
-0.276029
0.908362
0.0404442
0.112451
-1.73048
0.207828
-1.50707
0.290297
-1.30241
0.370013
-1.22683
0.480722
-1.11482
0.589404
-0.916656
0.650971
-0.633201
0.706513
-0.378841
0.790126
-0.21038
0.825649
0.141359
0.795823
0.346978
0.829748
0.0134338
0.873561
-0.265116
0.860195
-0.362606
0.886062
-0.369115
0.847444
-0.118346
0.695846
-0.0559509
0.59996
-0.156916
0.468727
0.210258
0.236753
0.484525
0.071077
0.335029
-0.0900314
0.140208
-0.161945
0.0823665
-0.13333
0.0993903
-0.201904
0.282099
-0.305462
0.418861
-0.294486
0.469954
-0.225798
0.468673
-0.211658
0.366383
-0.25163
0.216448
-0.268199
0.0378724
-0.190517
-0.268056
-0.13309
-0.384515
-0.110826
-0.411946
0.0339676
-0.403518
0.18907
-0.26032
0.190598
-0.372887
0.14189
-0.604341
0.201252
-0.773689
0.44189
-0.894459
0.738705
-0.912774
0.936195
-0.73486
1.00691
-0.473951
1.00732
-0.407533
1.06254
-0.462836
1.18292
-0.632632
1.26162
-0.903252
1.34449
-0.791031
1.41863
-0.213171
1.40264
0.380313
1.37591
0.46089
1.37037
0.579322
1.29072
1.0563
1.13489
1.1848
0.984306
0.717087
0.81987
0.267847
0.641884
-0.00547441
0.511797
-0.116011
0.494001
-0.131781
0.609632
-0.0136667
0.703439
0.306174
0.693876
0.418826
0.733059
0.340623
0.844021
0.289572
0.8704
0.249864
0.849193
-0.144174
0.884646
-0.260853
0.888585
0.136409
0.807715
0.485742
0.695397
0.16949
0.585157
-0.13062
0.510201
-0.126965
0.500661
-0.189045
0.506961
-0.48349
0.550009
-0.728568
0.67344
-0.632679
0.777623
-0.360403
0.729295
-0.231948
0.66463
-0.154633
0.710765
-0.0493924
0.776452
0.193498
0.826987
0.119583
0.847748
-0.278902
0.815966
-0.390037
0.717496
-0.378224
0.554961
-0.323652
0.395565
-0.0954726
0.336465
0.272023
0.396021
0.447637
0.491746
0.323475
0.507802
0.284738
0.491886
0.288969
0.424442
0.299391
0.242685
0.426392
0.0642507
0.754634
-0.0407461
1.07273
-0.178027
1.21666
-0.40037
1.32051
-0.470244
0.978236
-0.0541207
0.0701956
-1.79567
0.130172
-1.56704
0.180392
-1.35263
0.229678
-1.27611
0.301585
-1.18672
0.399974
-1.01503
0.475516
-0.708729
0.521584
-0.424894
0.575613
-0.264394
0.645801
0.0711883
0.667601
0.325193
0.638796
0.0422548
0.665772
-0.292077
0.680827
-0.377645
0.614373
-0.302647
0.570565
-0.0745238
0.471042
0.043587
0.263259
0.0508826
0.126586
0.346948
-0.0334614
0.644589
-0.333181
0.634766
-0.570548
0.377593
-0.692777
0.204612
-0.791427
0.198056
-0.809096
0.299785
-0.835744
0.445526
-0.903618
0.537845
-0.885707
0.450779
-0.777306
0.257997
-0.689364
0.128521
-0.665616
0.0141384
-0.675697
-0.257962
-0.669751
-0.390449
-0.639173
-0.442513
-0.495488
-0.547192
-0.294791
-0.461006
-0.281267
-0.386401
-0.323492
-0.562106
-0.271663
-0.825511
-0.0668843
-1.09923
0.23226
-1.21191
0.47857
-0.981165
0.583433
-0.578809
0.607757
-0.431852
0.707651
-0.562727
0.83774
-0.762717
0.904265
-0.969774
0.948453
-0.835216
1.03424
-0.298954
1.07852
0.33603
1.01065
0.528767
0.980709
0.609264
0.959974
1.07703
0.855854
1.28892
0.700347
0.872596
0.492711
0.475484
0.26323
0.224007
0.0880894
0.0591308
0.0287245
-0.0724153
0.103401
-0.0883429
0.210899
0.198676
0.282574
0.347152
0.391135
0.232062
0.522159
0.158548
0.547756
0.224266
0.462336
-0.0587556
0.459972
-0.25849
0.531363
0.0650167
0.508201
0.508901
0.373131
0.304558
0.220721
0.0217866
0.143819
-0.0500662
0.136806
-0.182034
0.115236
-0.461924
0.0928145
-0.70615
0.145001
-0.684869
0.210445
-0.425852
0.180333
-0.201841
0.137143
-0.111447
0.159554
-0.0718086
0.242748
0.110298
0.32603
0.0362956
0.366391
-0.319269
0.37808
-0.401732
0.275213
-0.275362
0.0730973
-0.121542
-0.0776424
0.055263
-0.0986082
0.292985
-0.0363184
0.385344
0.029406
0.257747
0.0675274
0.246613
0.0601176
0.296376
-0.00696099
0.366467
-0.15248
0.571909
-0.252527
0.85468
-0.311981
1.13218
-0.476668
1.38135
-0.620597
1.46444
-0.639204
0.996844
-0.103106
0.0262063
-1.81687
0.0458998
-1.58672
0.0606504
-1.36737
0.0725015
-1.28795
0.107176
-1.22139
0.17562
-1.08347
0.251615
-0.784711
0.302457
-0.475723
0.346441
-0.308363
0.432249
-0.0146047
0.481378
0.276078
0.45737
0.0662768
0.400272
-0.234966
0.368528
-0.345889
0.3161
-0.250206
0.267019
-0.025429
0.170421
0.140198
-0.068525
0.289843
-0.226642
0.50508
-0.390342
0.808305
-0.691676
0.936117
-1.01209
0.698024
-1.28238
0.474917
-1.41592
0.331619
-1.43263
0.316503
-1.50529
0.518211
-1.53999
0.572557
-1.46672
0.377531
-1.40762
0.198911
-1.31662
0.0375378
-1.25127
-0.0511969
-1.27284
-0.236387
-1.27107
-0.392198
-1.25751
-0.456065
-1.1638
-0.640893
-0.951379
-0.673416
-0.876174
-0.461596
-0.895501
-0.542769
-0.816552
-0.904453
-0.679463
-1.23632
-0.498136
-1.39323
-0.237561
-1.24173
-0.0098742
-0.80649
0.113052
-0.554773
0.231906
-0.681577
0.339504
-0.870312
0.372194
-1.00246
0.387108
-0.850128
0.48963
-0.401474
0.6021
0.223562
0.541965
0.588904
0.500589
0.650642
0.537779
1.03985
0.491931
1.33477
0.33217
1.03236
0.0844056
0.72325
-0.174122
0.482536
-0.359963
0.244972
-0.452981
0.0206038
-0.440838
-0.100486
-0.329438
0.0872766
-0.185745
0.203459
-0.0535456
0.0998631
0.0644173
0.0405845
0.098448
0.190235
-0.0076165
0.0473081
-0.0594485
-0.206659
0.0313243
-0.0257575
0.0965839
0.44364
-0.0245803
0.42572
-0.194116
0.19132
-0.239707
-0.00447795
-0.260178
-0.161566
-0.332271
-0.389834
-0.400517
-0.637908
-0.399301
-0.686089
-0.388074
-0.437083
-0.448172
-0.141747
-0.453416
-0.106208
-0.382824
-0.142404
-0.313912
0.0413817
-0.235822
-0.0417991
-0.179086
-0.37601
-0.166367
-0.414455
-0.246823
-0.194911
-0.392826
0.0244566
-0.503325
0.165759
-0.524801
0.314459
-0.467839
0.328379
-0.355566
0.145471
-0.29679
0.187834
-0.315611
0.315194
-0.35739
0.408244
-0.478713
0.69323
-0.569986
0.945952
-0.634464
1.19666
-0.733947
1.48083
-0.736609
1.4671
-0.686408
0.946642
-0.130344
-0.00890536
-1.80296
-0.0462576
-1.54936
-0.0767472
-1.33687
-0.101648
-1.26304
-0.10232
-1.2207
-0.0726608
-1.11311
-0.01359
-0.843771
0.0366132
-0.525914
0.0919087
-0.363645
0.178404
-0.101087
0.228727
0.225768
0.214113
0.0809016
0.144058
-0.164899
0.0402065
-0.242027
-0.0186094
-0.191379
-0.0769676
0.0329419
-0.191195
0.254439
-0.36038
0.459042
-0.59869
0.743406
-0.845009
1.05464
-1.09578
1.1869
-1.41229
1.01455
-1.73826
0.800902
-1.91609
0.509466
-2.01553
0.415961
-2.11101
0.613708
-2.15695
0.618518
-2.13926
0.359855
-2.07918
0.138847
-2.01186
-0.0297684
-1.94209
-0.120948
-1.93104
-0.247424
-1.90895
-0.414279
-1.86826
-0.496747
-1.83115
-0.677992
-1.67084
-0.833715
-1.5262
-0.606221
-1.49016
-0.578805
-1.43448
-0.960118
-1.34676
-1.32404
-1.24576
-1.49423
-0.996998
-1.49049
-0.686601
-1.11688
-0.485422
-0.755948
-0.34186
-0.825135
-0.255861
-0.956308
-0.230384
-1.02794
-0.204674
-0.875835
-0.0932266
-0.512919
0.0397697
0.0905677
0.00905861
0.619616
-0.0391114
0.698814
0.0330028
0.967734
0.040786
1.32699
-0.122971
1.19612
-0.377823
0.978103
-0.623817
0.728531
-0.789885
0.411042
-0.89634
0.127059
-0.936249
-0.0605772
-0.874352
0.0253801
-0.761087
0.0901942
-0.608671
-0.0525528
-0.476724
-0.091362
-0.450089
0.163599
-0.533767
0.130985
-0.59522
-0.145207
-0.51823
-0.102749
-0.438622
0.364032
-0.526388
0.513484
-0.621698
0.286628
-0.659643
0.0334656
-0.697101
-0.12411
-0.772425
-0.314513
-0.901686
-0.50865
-0.944369
-0.643409
-0.9605
-0.420955
-0.990193
-0.112058
-1.00963
-0.0867725
-0.922411
-0.229627
-0.797981
-0.0830519
-0.787852
-0.0519326
-0.785696
-0.37817
-0.726734
-0.473421
-0.72829
-0.193358
-0.798023
0.0941866
-0.852543
0.220277
-0.875974
0.337887
-0.790546
0.242948
-0.726046
0.0809683
-0.702077
0.163863
-0.70731
0.320424
-0.799727
0.500659
-0.8481
0.741603
-0.881063
0.978913
-0.888854
1.20445
-0.861723
1.4537
-0.825904
1.43128
-0.693718
0.814456
-0.210768
-0.0748463
-1.72311
-0.154133
-1.47007
-0.225126
-1.26587
-0.289972
-1.19819
-0.319643
-1.19103
-0.327896
-1.10485
-0.301059
-0.870598
-0.252541
-0.574422
-0.201614
-0.41456
-0.101143
-0.201546
-0.0386931
0.163328
-0.0707723
0.112991
-0.15661
-0.0790516
-0.290574
-0.108053
-0.43126
-0.0506816
-0.551556
0.153251
-0.627825
0.330721
-0.757612
0.588844
-0.990193
0.976004
-1.19419
1.25865
-1.45654
1.44928
-1.80058
1.35862
-2.09346
1.09379
-2.36114
0.777163
-2.58302
0.637853
-2.68861
0.719321
-2.7487
0.678627
-2.76859
0.37976
-2.72527
0.0955391
-2.68352
-0.0715043
-2.6099
-0.194548
-2.56943
-0.287884
-2.52307
-0.460631
-2.46337
-0.556434
-2.46322
-0.678131
-2.37323
-0.923699
-2.19006
-0.789379
-2.09924
-0.66962
-2.07758
-0.981777
-2.0218
-1.37981
-1.95418
-1.56183
-1.75556
-1.68911
-1.44365
-1.42879
-1.20531
-0.994281
-1.01904
-1.0114
-0.921067
-1.05428
-0.920096
-1.0289
-0.870398
-0.925532
-0.74815
-0.635165
-0.62613
-0.0314507
-0.582892
0.57638
-0.599593
0.715515
-0.52991
0.898052
-0.495599
1.29268
-0.657467
1.35798
-0.903945
1.22458
-1.12241
0.946993
-1.28976
0.578399
-1.36427
0.201571
-1.38134
-0.0435119
-1.40804
0.0520773
-1.33596
0.018119
-1.22501
-0.163503
-1.14112
-0.17525
-1.0403
0.0627762
-1.04065
0.131336
-1.11672
-0.0691394
-1.03959
-0.179878
-0.948363
0.272802
-1.02483
0.58995
-1.13195
0.393747
-1.15623
0.0577395
-1.18152
-0.0988173
-1.25763
-0.23841
-1.36238
-0.403899
-1.48753
-0.51826
-1.53748
-0.371003
-1.54644
-0.103106
-1.53319
-0.100027
-1.4724
-0.290418
-1.36377
-0.191687
-1.29964
-0.11606
-1.26886
-0.408949
-1.19825
-0.544036
-1.18522
-0.206395
-1.25831
0.167276
-1.26382
0.225786
-1.16587
0.239932
-1.12258
0.199663
-1.09932
0.0576991
-1.07579
0.140333
-1.10068
0.345314
-1.14136
0.541338
-1.18753
0.787769
-1.1664
0.957784
-1.10065
1.1387
-1.01157
1.36462
-0.86596
1.28567
-0.658562
0.607058
-0.298508
-0.145061
-1.57305
-0.267538
-1.34759
-0.375256
-1.15815
-0.473939
-1.0995
-0.55217
-1.11279
-0.592046
-1.06497
-0.55521
-0.907426
-0.528342
-0.601282
-0.523338
-0.419556
-0.413338
-0.311537
-0.335797
0.0857972
-0.396553
0.173755
-0.49029
0.0146939
-0.6175
0.0191681
-0.7743
0.106128
-0.912664
0.291627
-1.08076
0.498834
-1.28365
0.791745
-1.43448
1.12685
-1.59905
1.42325
-1.88133
1.73158
-2.1788
1.65611
-2.43236
1.34737
-2.7588
1.10362
-3.07244
0.951509
-3.24121
0.88811
-3.30884
0.746271
-3.29848
0.36941
-3.25909
0.0561675
-3.28631
-0.0442752
-3.25906
-0.221785
-3.20776
-0.339177
-3.12934
-0.539045
-3.03991
-0.645856
-3.05366
-0.664367
-3.05549
-0.921867
-2.90738
-0.937481
-2.76596
-0.811036
-2.77869
-0.969041
-2.73327
-1.42523
-2.61691
-1.67819
-2.49956
-1.80645
-2.32307
-1.60528
-2.0563
-1.26104
-1.83594
-1.23177
-1.7262
-1.16402
-1.66172
-1.09338
-1.59228
-0.994973
-1.4444
-0.783036
-1.26747
-0.208378
-1.19135
0.50026
-1.23812
0.762286
-1.2333
0.893233
-1.1447
1.20408
-1.20014
1.41342
-1.42388
1.44832
-1.6603
1.18341
-1.82322
0.741322
-1.86473
0.243082
-1.91827
0.0100332
-1.99192
0.125728
-2.02562
0.0518178
-1.91485
-0.274274
-1.77237
-0.317732
-1.67486
-0.0347308
-1.61105
0.0675259
-1.66417
-0.0160229
-1.65177
-0.192277
-1.50948
0.130504
-1.49249
0.57296
-1.63576
0.537023
-1.72238
0.144357
-1.71305
-0.108155
-1.78595
-0.165511
-1.91236
-0.277486
-2.03408
-0.396543
-2.04964
-0.355447
-2.04779
-0.104951
-2.1209
-0.0269222
-2.0559
-0.355417
-1.85142
-0.396175
-1.75076
-0.216721
-1.79695
-0.362759
-1.78358
-0.55741
-1.70901
-0.280964
-1.68816
0.14642
-1.67571
0.213336
-1.59604
0.160263
-1.51562
0.11924
-1.51655
0.058627
-1.46844
0.092216
-1.41917
0.296048
-1.44327
0.565433
-1.4472
0.7917
-1.40241
0.912994
-1.31431
1.0506
-1.1639
1.21421
-0.923266
1.04503
-0.639416
0.323209
-0.384031
-0.211422
-1.35662
-0.353844
-1.20516
-0.471972
-1.04002
-0.586327
-0.985138
-0.719254
-0.979855
-0.787483
-0.996736
-0.796099
-0.898803
-0.835914
-0.56146
-0.845499
-0.409964
-0.760942
-0.396086
-0.665623
-0.00951455
-0.697972
0.206112
-0.81269
0.12942
-0.944794
0.151281
-1.10162
0.262961
-1.29303
0.483054
-1.53165
0.737459
-1.76608
1.02619
-1.94824
1.30902
-2.13513
1.61016
-2.34382
1.94029
-2.59464
1.90694
-2.82774
1.58048
-3.10713
1.38302
-3.44934
1.29373
-3.66415
1.10293
-3.77048
0.852614
-3.79338
0.392319
-3.81618
0.0789758
-3.82165
-0.0388005
-3.82004
-0.223386
-3.81194
-0.347272
-3.74512
-0.605855
-3.65321
-0.737755
-3.58865
-0.728929
-3.67293
-0.837581
-3.63714
-0.973266
-3.49401
-0.954163
-3.43513
-1.02792
-3.40418
-1.45617
-3.29922
-1.78315
-3.22317
-1.88249
-3.19513
-1.63333
-2.96572
-1.49045
-2.69511
-1.50238
-2.50528
-1.35384
-2.35516
-1.2435
-2.31635
-1.03378
-2.25663
-0.84276
-2.06779
-0.397215
-1.91535
0.34782
-1.94488
0.791818
-1.95277
0.901127
-1.86098
1.11229
-1.88728
1.43972
-2.05074
1.61178
-2.20938
1.34206
-2.37551
0.907447
-2.52045
0.388022
-2.61119
0.100773
-2.69056
0.205096
-2.68646
0.047725
-2.61211
-0.348629
-2.52995
-0.399893
-2.39276
-0.171917
-2.26318
-0.0620531
-2.23474
-0.0444701
-2.23261
-0.1944
-2.09567
-0.00644371
-2.05516
0.532453
-2.20686
0.688722
-2.37193
0.309429
-2.40292
-0.0771732
-2.42157
-0.146861
-2.47564
-0.223416
-2.57665
-0.29553
-2.61193
-0.32017
-2.58555
-0.13133
-2.64303
0.0305559
-2.64978
-0.348673
-2.50647
-0.539487
-2.30901
-0.414178
-2.24688
-0.42489
-2.32467
-0.479627
-2.25436
-0.351277
-2.12329
0.0153514
-2.06528
0.155327
-2.02642
0.121397
-1.96628
0.0590959
-1.94917
0.0415178
-1.9318
0.0748462
-1.7898
0.15405
-1.71712
0.492747
-1.69599
0.770573
-1.57802