/*--------------------------------*- C++ -*----------------------------------*\
| =========                 |                                                 |
| \\      /  F ield         | foam-extend: Open Source CFD                    |
|  \\    /   O peration     | Version:     5.0                                |
|   \\  /    A nd           | Web:         http://www.foam-extend.org         |
|    \\/     M anipulation  |                                                 |
\*---------------------------------------------------------------------------*/
FoamFile
{
    version     2.0;
    format      ascii;
    class       volVectorField;
    location    "0.055";
    object      U;
}
// * * * * * * * * * * * * * * * * * * * * * * * * * * * * * * * * * * * * * //

dimensions      [0 1 -1 0 0 0 0];

internalField   nonuniform List<vector> 
4000
(
(2.41865 0.752686 0)
(6.66626 -1.45675 0)
(19.6564 -1.50336 0)
(32.7524 -1.46617 0)
(41.1859 -0.870582 0)
(46.3802 0.392636 0)
(46.4871 -0.431178 0)
(55.4826 -1.26025 0)
(51.209 0.259999 0)
(49.7782 1.53433 0)
(47.441 0.0993141 0)
(43.4124 -0.797386 0)
(37.602 1.03401 0)
(34.957 1.63783 0)
(25.096 0.875618 0)
(30.5949 1.34293 0)
(20.1601 -0.87368 0)
(37.1061 -1.76143 0)
(42.3463 -1.52432 0)
(58.914 -1.06977 0)
(69.9698 -1.61947 0)
(73.2777 -0.882514 0)
(66.4533 1.08236 0)
(72.2783 0.0270047 0)
(64.8007 0.418567 0)
(65.258 2.11542 0)
(49.2666 0.00814862 0)
(66.4405 -1.60071 0)
(58.0418 0.662848 0)
(41.5898 1.7426 0)
(44.2397 0.578845 0)
(42.5309 -0.242744 0)
(44.4515 -0.80826 0)
(53.1707 -0.760814 0)
(57.2977 -0.0301698 0)
(57.4568 -0.203694 0)
(63.2098 -1.30147 0)
(82.5546 -2.6199 0)
(92.0907 -1.55383 0)
(100.361 0.587161 0)
(86.0502 1.2798 0)
(88.63 0.918895 0)
(86.6937 -0.163179 0)
(87.8938 -1.26186 0)
(94.7735 -1.00187 0)
(101.867 -0.761339 0)
(111.326 -0.977149 0)
(114.247 0.387409 0)
(116.352 0.680234 0)
(110.834 0.414148 0)
(108.107 0.133142 0)
(98.8478 0.961772 0)
(92.7225 2.42219 0)
(75.0962 1.90367 0)
(66.1133 0.604868 0)
(65.2833 -0.133383 0)
(70.366 -0.480869 0)
(79.0591 -0.704236 0)
(78.9813 -0.105315 0)
(76.2693 0.685211 0)
(76.434 0.160333 0)
(75.4943 -0.788833 0)
(75.5883 -0.228709 0)
(72.9636 1.33323 0)
(62.0417 1.60882 0)
(57.1062 1.31176 0)
(47.2289 1.08949 0)
(44.5331 0.826289 0)
(40.8178 0.547695 0)
(37.6583 -0.438212 0)
(44.6651 -1.26642 0)
(55.7889 -2.01408 0)
(68.8243 -2.04355 0)
(82.5231 -1.60658 0)
(85.3049 0.518545 0)
(81.3855 2.08905 0)
(69.4157 1.22005 0)
(69.1988 -0.592243 0)
(81.4519 -1.45537 0)
(83.8704 0.178335 0)
(77.2784 1.25786 0)
(69.7278 0.244739 0)
(70.3555 -0.621723 0)
(77.3571 -0.4549 0)
(93.7629 -1.19705 0)
(94.7176 -0.582666 0)
(99.5349 0.224409 0)
(101.892 -0.525575 0)
(107.065 -1.14516 0)
(104.589 0.0442397 0)
(102.735 0.970784 0)
(100.251 -0.0781103 0)
(103.207 -1.10238 0)
(112.522 -0.940393 0)
(117.463 0.1528 0)
(118.101 0.302792 0)
(116.824 -1.1452 0)
(129.977 0.228469 0)
(116.52 2.38138 0)
(107.343 0.0484357 0)
(18.681 -2.08133 0)
(36.9857 -6.53903 0)
(61.9651 -6.16575 0)
(95.3477 -5.59076 0)
(113.658 -3.10494 0)
(126.128 -1.46997 0)
(122.305 -2.08256 0)
(145.918 -1.74712 0)
(133.92 1.75388 0)
(121.169 1.87116 0)
(134.833 0.540456 0)
(116.135 2.89515 0)
(87.2926 3.21653 0)
(103.875 1.76983 0)
(83.2868 0.581446 0)
(120.977 -0.561938 0)
(113.94 -1.87331 0)
(110.556 -4.50749 0)
(148.413 -5.41097 0)
(160.343 -4.18884 0)
(166.365 -2.49967 0)
(152.999 -0.439829 0)
(170.92 1.15977 0)
(179.709 0.138566 0)
(149.128 1.31051 0)
(170.295 2.11654 0)
(152.065 -0.284814 0)
(170.837 -0.90197 0)
(144.447 4.90477 0)
(109.698 5.01702 0)
(119.071 0.351385 0)
(123.814 -0.938011 0)
(113.934 -2.3415 0)
(127.546 -3.39217 0)
(157.718 -1.37698 0)
(153.548 -1.20408 0)
(154.001 -4.90559 0)
(192.718 -7.47545 0)
(198.559 -4.17711 0)
(213.755 1.10001 0)
(199.862 2.90458 0)
(209.909 0.977115 0)
(210.668 -1.29072 0)
(213.952 -2.51341 0)
(221.969 -2.16488 0)
(233.524 -2.46197 0)
(241.148 -3.48432 0)
(257.11 -1.18969 0)
(261.339 1.15528 0)
(255.132 2.12251 0)
(244.783 2.3654 0)
(222.349 3.36535 0)
(213.122 6.53853 0)
(188.479 5.77517 0)
(172.222 2.06445 0)
(167.525 -0.554504 0)
(174.251 -2.72531 0)
(195.036 -2.74905 0)
(190.253 0.375706 0)
(183.167 1.90982 0)
(186.108 0.133807 0)
(184.672 -0.562236 0)
(173.51 1.02761 0)
(167.804 3.5114 0)
(153.181 4.34525 0)
(144.89 2.76467 0)
(132.972 2.26989 0)
(128.652 1.82632 0)
(125.782 1.77419 0)
(117.634 -1.22835 0)
(131.865 -3.97088 0)
(152.587 -5.5258 0)
(172.338 -5.42063 0)
(187.669 -4.30585 0)
(196.639 0.342518 0)
(194.027 4.57224 0)
(179.644 1.96732 0)
(190.075 -3.39207 0)
(210.255 -4.54469 0)
(213.075 1.08011 0)
(196.755 4.70828 0)
(178.629 1.68285 0)
(173.514 -2.37349 0)
(196.318 -4.37297 0)
(233.173 -5.46963 0)
(231.011 -2.17533 0)
(240.426 -0.535136 0)
(252.568 -1.76176 0)
(254.899 -1.37319 0)
(242.994 1.35705 0)
(245.07 2.03814 0)
(243.24 -1.04419 0)
(245.482 -3.15461 0)
(257.172 -2.86371 0)
(261.203 -0.712971 0)
(260.521 0.0483141 0)
(255.337 -2.84842 0)
(264.745 -1.14459 0)
(260.719 6.15804 0)
(236.653 2.05401 0)
(32.8547 -9.77872 0)
(61.2389 -14.2003 0)
(84.9702 -14.1605 0)
(130.554 -13.1111 0)
(153.512 -7.84982 0)
(177.128 -3.948 0)
(188.411 -3.93742 0)
(193.246 -1.69636 0)
(170.241 2.60539 0)
(196.278 1.78903 0)
(183.981 3.34638 0)
(162.655 7.79427 0)
(137.253 4.84935 0)
(158.346 0.988369 0)
(142.506 -1.79982 0)
(177.079 -5.52215 0)
(203.575 -4.6904 0)
(202.38 -5.67144 0)
(198.301 -8.18263 0)
(202.216 -7.17373 0)
(241.69 -4.20226 0)
(215.793 -2.43196 0)
(243.995 -1.24218 0)
(249.208 2.61393 0)
(225.324 3.47833 0)
(214.779 2.35751 0)
(238.656 -0.981888 0)
(223.02 2.23803 0)
(199.246 10.4794 0)
(172.754 8.03621 0)
(194.245 0.758527 0)
(168.577 -0.984592 0)
(191.955 -5.05438 0)
(189.953 -8.28904 0)
(221.634 -3.98145 0)
(216.31 -1.0874 0)
(220.384 -7.83673 0)
(225.77 -12.9568 0)
(250.812 -7.60617 0)
(249.538 1.11746 0)
(252.938 2.85879 0)
(260.256 0.372524 0)
(268.719 -3.49762 0)
(273.513 -4.50007 0)
(276.196 -3.62656 0)
(280.864 -5.29018 0)
(307.625 -9.00565 0)
(320.151 -3.13787 0)
(326.262 1.7557 0)
(324.87 3.68422 0)
(317.885 5.3481 0)
(288.363 7.84887 0)
(276.909 12.4343 0)
(254.128 10.9384 0)
(239.116 4.85873 0)
(225.304 -1.23939 0)
(246.779 -7.18651 0)
(262.641 -5.24225 0)
(261.016 1.25603 0)
(246.979 4.19022 0)
(251.517 0.530793 0)
(246.063 0.675238 0)
(225.773 3.02662 0)
(219.161 6.00906 0)
(205.426 7.99887 0)
(202.627 4.01121 0)
(201.739 3.02917 0)
(198.907 2.65619 0)
(202.333 3.21103 0)
(191.818 -2.30231 0)
(201.655 -8.22211 0)
(222.114 -10.5528 0)
(234.441 -9.78556 0)
(251.601 -9.10567 0)
(259.102 -0.283464 0)
(271.352 6.29898 0)
(269.971 0.843057 0)
(282.783 -7.51042 0)
(294.912 -7.36843 0)
(286.8 3.94556 0)
(268.193 11.0127 0)
(248.3 3.52402 0)
(243.067 -5.67937 0)
(271.412 -10.7032 0)
(309.766 -10.989 0)
(314.546 -5.94151 0)
(336.556 -2.9623 0)
(350.921 -3.12496 0)
(342.5 -0.484937 0)
(318 3.52178 0)
(324.916 3.01811 0)
(325.835 -1.05589 0)
(318.814 -4.85833 0)
(323.305 -3.73431 0)
(318.793 0.966343 0)
(309.801 0.705485 0)
(320.321 -3.89182 0)
(301.938 -0.0371999 0)
(291.81 9.74743 0)
(301.527 2.52933 0)
(39.1376 -21.5604 0)
(73.8766 -23.5517 0)
(110.214 -22.6067 0)
(143.392 -20.5496 0)
(156.962 -14.2707 0)
(194.458 -7.99785 0)
(194.756 -5.71117 0)
(215.976 -1.6957 0)
(198.436 1.54404 0)
(225.363 2.58827 0)
(203.471 8.70806 0)
(179.391 10.5314 0)
(187.762 5.80592 0)
(179.962 0.310494 0)
(201.525 -7.65315 0)
(240.416 -13.1639 0)
(250.91 -7.04131 0)
(252.362 -4.18523 0)
(253.458 -8.9358 0)
(247.455 -12.3317 0)
(286.583 -7.01706 0)
(267.125 -4.5427 0)
(303.024 -1.58828 0)
(273.695 7.60917 0)
(235.348 6.08137 0)
(258.095 -1.20127 0)
(264.931 0.564347 0)
(237.956 8.32138 0)
(205.449 14.0429 0)
(215.736 8.20018 0)
(233.312 1.61055 0)
(218.05 -0.436497 0)
(207.756 -7.81952 0)
(230.97 -12.6951 0)
(245.431 -5.67141 0)
(233.426 -0.0593153 0)
(227.741 -8.3519 0)
(254.575 -17.2418 0)
(251.691 -11.2957 0)
(272.469 -0.605095 0)
(272.161 2.00353 0)
(284.554 -0.833062 0)
(299.296 -5.89772 0)
(303.153 -5.45917 0)
(302.358 -5.26748 0)
(316.231 -9.94219 0)
(345.798 -15.5367 0)
(350.421 -5.61194 0)
(371.335 0.786494 0)
(368.52 5.0487 0)
(360.505 9.37665 0)
(331.406 13.1197 0)
(315.227 17.854 0)
(293.952 15.5409 0)
(281.566 6.97617 0)
(275.985 -2.76204 0)
(286.032 -10.9855 0)
(305.105 -8.01262 0)
(309.637 2.62019 0)
(293.338 6.24106 0)
(292.779 1.92359 0)
(280.099 3.58376 0)
(263.307 6.66994 0)
(250.267 9.57927 0)
(236.254 10.6048 0)
(232.141 2.27478 0)
(245.906 1.45438 0)
(253.519 2.71019 0)
(248.575 5.29452 0)
(232.283 -2.19623 0)
(242.663 -11.2071 0)
(262.359 -14.1932 0)
(268.394 -13.3097 0)
(288.498 -13.1789 0)
(291.936 -2.78835 0)
(316.283 4.59802 0)
(321.876 -1.12146 0)
(330.434 -9.98094 0)
(338.241 -7.2366 0)
(331.266 7.01459 0)
(318.273 16.6284 0)
(303.346 5.70347 0)
(295.23 -9.4738 0)
(325.583 -17.4196 0)
(352.785 -17.8328 0)
(367.769 -11.2192 0)
(390.995 -6.14067 0)
(402.9 -2.72547 0)
(384.537 3.59862 0)
(354.864 6.16603 0)
(361.677 3.16331 0)
(360.941 -0.253068 0)
(341.91 -4.03316 0)
(344.355 -4.11773 0)
(343.651 2.17885 0)
(334.356 1.67181 0)
(329.077 -2.66459 0)
(297.135 2.28327 0)
(295.383 11.9035 0)
(284.968 1.96568 0)
(38.5209 -34.2912 0)
(69.9201 -33.1199 0)
(102.487 -30.7286 0)
(132.884 -28.0852 0)
(169.079 -21.7259 0)
(199.181 -13.4202 0)
(214.736 -7.63865 0)
(218.796 -3.04118 0)
(213.158 0.0525774 0)
(229.222 4.28253 0)
(203.402 11.4828 0)
(213.752 11.3693 0)
(205.133 5.35188 0)
(230.558 -3.93789 0)
(246.855 -12.3295 0)
(262.597 -16.4337 0)
(264.529 -8.70332 0)
(263.839 -6.18163 0)
(293.58 -9.16404 0)
(291.972 -14.134 0)
(292.319 -8.81815 0)
(279.291 -7.01422 0)
(307.93 -0.362192 0)
(292.214 13.4048 0)
(260.52 7.17883 0)
(282.522 -2.54927 0)
(265.18 5.12615 0)
(243.157 15.4422 0)
(202.981 15.5658 0)
(224.083 4.58111 0)
(239.951 1.30519 0)
(237.599 0.971336 0)
(236.733 -10.0831 0)
(243.501 -14.8891 0)
(247.155 -3.24774 0)
(225.886 1.32679 0)
(246.983 -11.1044 0)
(252.511 -19.5323 0)
(251.756 -14.7494 0)
(278.29 -3.41715 0)
(279.706 1.15613 0)
(298.536 -4.19412 0)
(312.919 -9.90434 0)
(315.582 -6.74651 0)
(324.058 -6.87129 0)
(349.914 -15.3515 0)
(362.387 -18.9086 0)
(367.948 -9.13182 0)
(393.651 -0.755493 0)
(382.773 6.09361 0)
(379.375 12.6901 0)
(353.273 17.8642 0)
(337.321 23.6312 0)
(318.109 20.4238 0)
(292.615 8.65647 0)
(296.596 -4.26555 0)
(311.114 -14.2319 0)
(324.763 -11.4432 0)
(340.798 2.02977 0)
(341.591 10.0325 0)
(323.125 6.73408 0)
(290.463 6.65837 0)
(289.138 9.20505 0)
(262.853 14.2115 0)
(254.16 14.5956 0)
(246.883 1.13026 0)
(263.505 -1.72753 0)
(274.048 2.34499 0)
(272.382 7.62338 0)
(265.715 -1.74859 0)
(259 -14.3512 0)
(278.592 -17.0777 0)
(284.764 -16.6403 0)
(298.837 -16.7531 0)
(302.563 -6.00116 0)
(331.803 1.64969 0)
(337.205 -2.61874 0)
(340.52 -12.0165 0)
(347.009 -8.3943 0)
(348.897 8.42993 0)
(344.805 20.9801 0)
(337.317 8.59194 0)
(323.245 -12.2097 0)
(348.392 -22.3806 0)
(372.966 -22.8324 0)
(387.608 -16.8463 0)
(410.611 -8.43818 0)
(417.869 -0.817649 0)
(390.02 8.53524 0)
(365.203 9.12754 0)
(374.29 4.15219 0)
(358.427 2.56063 0)
(342.128 -1.43678 0)
(328.207 -3.51765 0)
(338.792 3.41103 0)
(333.448 5.10404 0)
(305.762 3.77742 0)
(252.625 8.57884 0)
(239.308 14.9078 0)
(235.026 2.82275 0)
(35.3133 -46.7416 0)
(69.4122 -42.5965 0)
(107.504 -37.8517 0)
(124.469 -35.6134 0)
(155.133 -29.9956 0)
(184.358 -19.755 0)
(214.112 -9.66883 0)
(210.545 -4.75264 0)
(229.294 -2.11815 0)
(230.122 6.32498 0)
(221.823 13.1159 0)
(211.519 9.15783 0)
(237.473 1.88292 0)
(250.091 -7.31884 0)
(259.23 -15.3397 0)
(266.558 -17.1879 0)
(253.213 -12.0463 0)
(295.677 -9.98558 0)
(297.362 -9.87229 0)
(277.692 -10.5084 0)
(248.164 -8.3671 0)
(274.51 -8.65521 0)
(248.395 -1.1182 0)
(279.053 15.3077 0)
(280.055 8.50525 0)
(258.995 0.495592 0)
(244.252 10.3953 0)
(224.14 21.1544 0)
(188.387 17.0358 0)
(203.638 1.02065 0)
(216.88 -0.0351417 0)
(219.926 0.933938 0)
(228.003 -9.6801 0)
(219.818 -14.0861 0)
(208.828 -2.96138 0)
(224.424 0.5485 0)
(226.836 -12.15 0)
(235.287 -21.9704 0)
(245.146 -19.7881 0)
(268.349 -7.02541 0)
(278.189 -0.98575 0)
(301.094 -7.88501 0)
(310.742 -12.9633 0)
(324.037 -9.17103 0)
(333.454 -9.61267 0)
(346.204 -18.226 0)
(359.306 -22.013 0)
(375.625 -14.0551 0)
(401.245 -2.8821 0)
(396.847 8.04254 0)
(385.866 16.6459 0)
(366.935 22.6897 0)
(349.325 29.3081 0)
(331.471 26.2825 0)
(304.169 11.6839 0)
(304.716 -6.03843 0)
(312.697 -15.9977 0)
(322.633 -14.4163 0)
(325.346 -1.72278 0)
(343.256 13.0241 0)
(325.013 12.927 0)
(292.94 9.61443 0)
(293.426 12.5642 0)
(265.26 19.7882 0)
(266.291 16.1958 0)
(258.404 -1.79823 0)
(272.121 -4.59328 0)
(277.86 2.4584 0)
(274.694 9.21242 0)
(269.906 -1.73148 0)
(278.174 -15.6105 0)
(271.08 -18.7949 0)
(277.292 -17.9632 0)
(273.222 -19.156 0)
(286.343 -11.2362 0)
(319.256 -1.60187 0)
(329.423 -4.57301 0)
(338.139 -13.864 0)
(338.945 -10.8883 0)
(345.116 8.08575 0)
(355.122 21.2329 0)
(350.758 9.08136 0)
(336.264 -14.314 0)
(358.724 -25.6555 0)
(372.433 -27.0999 0)
(379.1 -22.8644 0)
(397.547 -10.9761 0)
(406.93 1.98573 0)
(383.566 14.6558 0)
(347.897 13.1808 0)
(351.184 6.06668 0)
(329.569 6.21754 0)
(318.102 1.10797 0)
(309.528 -2.53564 0)
(310.681 4.19668 0)
(300.138 10.9779 0)
(249.252 14.6816 0)
(193.651 17.4454 0)
(156.997 20.6845 0)
(162.184 2.34303 0)
(29.5652 -58.8444 0)
(63.682 -51.6549 0)
(101.049 -44.9218 0)
(125.019 -41.884 0)
(149.905 -36.6941 0)
(168.818 -26.9833 0)
(208.823 -13.988 0)
(216.597 -6.7704 0)
(208.395 -3.6248 0)
(219.932 7.30313 0)
(220.824 15.1055 0)
(204.257 6.78817 0)
(225.543 -2.86672 0)
(251.826 -10.7592 0)
(255.724 -15.9673 0)
(256.519 -16.5549 0)
(235.424 -15.5008 0)
(258.916 -14.4217 0)
(274.934 -7.49317 0)
(249.741 -4.91361 0)
(215.846 -6.5343 0)
(229.005 -8.59807 0)
(202.887 -2.77037 0)
(244.307 11.6137 0)
(237.303 13.4391 0)
(203.35 5.63508 0)
(197.548 15.2287 0)
(157.475 26.4421 0)
(169.707 16.5439 0)
(174.767 1.08141 0)
(169.94 -1.07046 0)
(165.171 -1.6607 0)
(191.59 -10.1313 0)
(179.881 -13.8514 0)
(190.056 -3.37844 0)
(179.933 -0.133779 0)
(195.249 -13.6 0)
(207.384 -25.8723 0)
(218.143 -24.824 0)
(243.45 -11.2307 0)
(268.434 -5.29771 0)
(301.335 -11.8274 0)
(311.602 -16.3413 0)
(314.788 -12.8478 0)
(335.468 -11.812 0)
(337.426 -19.8135 0)
(352.439 -26.5307 0)
(382.07 -19.232 0)
(396.346 -4.08571 0)
(392.478 10.9847 0)
(368.844 19.6277 0)
(374.166 26.3765 0)
(342.237 34.2511 0)
(332.752 32.3037 0)
(305.856 14.7718 0)
(293.451 -5.79388 0)
(295.257 -16.9512 0)
(300.118 -16.8437 0)
(292.549 -4.80695 0)
(316.343 14.2532 0)
(310.666 18.6866 0)
(277.752 12.2881 0)
(276.764 14.8497 0)
(254.655 23.4178 0)
(266.538 17.2335 0)
(269.036 -3.88145 0)
(271.625 -7.14078 0)
(271.507 2.92064 0)
(267.463 11.3446 0)
(261.804 -2.76816 0)
(269.714 -16.0827 0)
(264.007 -17.283 0)
(241.958 -16.3316 0)
(246.516 -21.8456 0)
(251.885 -18.2188 0)
(299.018 -6.89121 0)
(311.056 -6.73828 0)
(317.056 -15.5569 0)
(316.218 -12.0718 0)
(315.274 5.48832 0)
(337.723 20.9777 0)
(343.688 10.6519 0)
(324.206 -15.1221 0)
(337.906 -27.2275 0)
(343.444 -29.6092 0)
(335.999 -26.9779 0)
(354.83 -13.6826 0)
(371.503 4.32994 0)
(336.779 20.9925 0)
(318.965 18.4866 0)
(306.877 9.77391 0)
(287.253 8.34456 0)
(288.368 3.89713 0)
(270.558 -0.516687 0)
(260.059 7.38562 0)
(234.963 20.9485 0)
(179.699 27.0782 0)
(134.952 28.6604 0)
(82.4152 28.1077 0)
(86.1544 2.34782 0)
(23.2759 -69.5161 0)
(54.3342 -60.6705 0)
(86.1579 -52.1492 0)
(111.261 -47.8137 0)
(137.225 -42.1278 0)
(148.523 -33.5371 0)
(179.193 -19.9845 0)
(209.755 -8.37681 0)
(210.018 -3.60806 0)
(200.921 7.66068 0)
(212.64 16.013 0)
(196.41 5.21208 0)
(211.757 -8.47235 0)
(242.901 -14.341 0)
(245.538 -15.0711 0)
(241.062 -14.5184 0)
(229.143 -15.1159 0)
(211.41 -16.1548 0)
(212.298 -6.22975 0)
(214.024 1.15501 0)
(181.783 -1.56932 0)
(146.062 -5.99445 0)
(154.595 -2.84856 0)
(130.351 8.26081 0)
(157.37 14.4322 0)
(161.624 9.16975 0)
(142.069 20.0717 0)
(113.238 28.5831 0)
(129.299 15.7936 0)
(116.043 2.62871 0)
(109.75 0.814375 0)
(100.514 -4.02519 0)
(121.851 -13.1547 0)
(129.015 -15.078 0)
(137.849 -4.22062 0)
(149.196 -0.579876 0)
(160.599 -16.4741 0)
(171.641 -30.0356 0)
(171.363 -29.9507 0)
(204.243 -17.7206 0)
(240.413 -12.5513 0)
(284.851 -17.2049 0)
(292.943 -18.248 0)
(288.82 -16.732 0)
(314.535 -15.3604 0)
(315.674 -21.5915 0)
(330.022 -32.5701 0)
(361.761 -25.8289 0)
(378.048 -3.94727 0)
(365.05 13.9945 0)
(355.514 20.4714 0)
(361.51 28.4249 0)
(334.132 40.1006 0)
(317.738 38.733 0)
(291.487 19.0173 0)
(271.184 -3.68317 0)
(256.407 -16.0615 0)
(259.196 -17.143 0)
(238.125 -7.05254 0)
(261.753 12.8213 0)
(278.376 22.1694 0)
(255.583 15.1563 0)
(237.024 17.2052 0)
(233.522 24.8003 0)
(251.878 15.7829 0)
(251.36 -6.18529 0)
(257.993 -8.18899 0)
(256.94 4.8271 0)
(250.555 13.7893 0)
(238.647 -2.4776 0)
(230.4 -15.5803 0)
(226.884 -13.996 0)
(211.453 -13.7317 0)
(203.969 -23.4004 0)
(214.479 -25.1838 0)
(265.43 -13.3475 0)
(281.347 -7.7077 0)
(278.664 -15.7572 0)
(278.026 -12.4573 0)
(275.637 3.59974 0)
(301.977 17.9463 0)
(308.398 10.7138 0)
(296.247 -13.4075 0)
(295.9 -25.9619 0)
(293.887 -29.4512 0)
(273.589 -29.6404 0)
(282.689 -17.1034 0)
(298.911 6.09331 0)
(256.886 25.5961 0)
(262.282 22.2552 0)
(251.274 13.46 0)
(245.541 10.3068 0)
(236.622 6.39657 0)
(215.047 3.73666 0)
(192.762 13.7408 0)
(157.881 32.097 0)
(102.974 38.5558 0)
(63.2011 39.8468 0)
(-2.09256 35.8843 0)
(26.8057 3.32127 0)
(15.2858 -77.8688 0)
(43.8098 -67.6852 0)
(70.721 -58.6357 0)
(86.4109 -54.7615 0)
(116.488 -46.9957 0)
(135.527 -38.5629 0)
(150.689 -26.4651 0)
(173.549 -13.2881 0)
(189.525 -4.769 0)
(193.1 8.37081 0)
(184.568 16.067 0)
(198.657 3.25444 0)
(202.83 -11.9983 0)
(196.844 -16.8849 0)
(225.717 -16.1033 0)
(215.923 -10.5154 0)
(181.828 -11.676 0)
(194.696 -14.3195 0)
(170.264 -1.75291 0)
(118.952 7.74322 0)
(91.9095 5.34792 0)
(71.0087 -2.53157 0)
(70.8281 -0.901903 0)
(51.2059 6.61005 0)
(86.6912 11.1515 0)
(73.9084 13.8738 0)
(38.3279 24.3468 0)
(61.6941 27.3807 0)
(51.6326 17.9578 0)
(41.6286 7.11217 0)
(19.2175 0.971451 0)
(35.9612 -7.36788 0)
(61.6674 -16.1336 0)
(46.4054 -17.8848 0)
(77.128 -8.7557 0)
(101.699 -3.17103 0)
(115.058 -17.9787 0)
(116.847 -32.096 0)
(114.887 -34.281 0)
(134.907 -27.7351 0)
(199.635 -24.008 0)
(247.378 -23.4633 0)
(255.723 -20.0088 0)
(247.832 -19.9033 0)
(264.492 -18.6485 0)
(276.597 -23.2845 0)
(303.078 -38.5804 0)
(318.415 -32.8682 0)
(342.829 -5.50826 0)
(338.118 17.282 0)
(329.014 21.4982 0)
(332.682 28.8322 0)
(316.194 45.6536 0)
(287.656 46.7183 0)
(257.417 24.7488 0)
(230.102 1.48197 0)
(205.947 -12.2446 0)
(194.45 -15.154 0)
(166.599 -8.46842 0)
(186.724 7.80176 0)
(226.588 22.2568 0)
(209.309 19.1087 0)
(183.561 18.4701 0)
(198.805 21.9871 0)
(225.798 14.4859 0)
(223.571 -8.29075 0)
(220.897 -10.5223 0)
(228.405 7.04171 0)
(220.514 18.0818 0)
(202.878 0.0262672 0)
(186.028 -14.04 0)
(169.031 -11.1222 0)
(166.904 -9.74365 0)
(162.726 -23.925 0)
(165.252 -31.8319 0)
(202.94 -21.7871 0)
(237.72 -10.9313 0)
(233.583 -14.9503 0)
(219.589 -12.1665 0)
(212.974 1.04894 0)
(241.429 15.0043 0)
(248.992 9.47518 0)
(245.406 -13.3113 0)
(240.986 -22.7883 0)
(234.058 -26.365 0)
(203.647 -27.2478 0)
(191.3 -15.164 0)
(181.418 10.1727 0)
(170.75 26.3063 0)
(186.342 22.0231 0)
(192.212 14.9568 0)
(177.711 12.4934 0)
(163.962 9.88213 0)
(153.942 9.38328 0)
(120.183 23.5429 0)
(69.1729 43.5748 0)
(36.6058 49.4998 0)
(-9.32477 50.4739 0)
(-60.6696 42.078 0)
(-49.624 1.61918 0)
(7.72105 -84.3161 0)
(33.0041 -73.4032 0)
(53.3113 -63.2483 0)
(64.5841 -59.6895 0)
(82.8224 -53.1752 0)
(108.964 -42.9243 0)
(126.762 -30.2773 0)
(134.717 -17.738 0)
(147.131 -8.35245 0)
(165.374 7.85373 0)
(165.553 16.5013 0)
(155.754 1.75839 0)
(174.406 -12.2796 0)
(174.601 -19.0837 0)
(170.579 -17.845 0)
(184.826 -7.11735 0)
(155.638 -7.33976 0)
(121.863 -10.6857 0)
(116.129 7.23323 0)
(73.3796 17.6387 0)
(23.0244 11.7923 0)
(4.7419 1.93813 0)
(-41.5732 1.75808 0)
(-26.9552 4.93972 0)
(-27.6316 12.4224 0)
(-47.6561 18.2062 0)
(-73.1081 23.968 0)
(-48.1128 25.4063 0)
(-44.5768 19.1904 0)
(-39.08 10.014 0)
(-58.8767 0.9781 0)
(-50.0756 -11.7508 0)
(-24.5975 -18.0519 0)
(-25.2493 -20.124 0)
(-23.8358 -16.5322 0)
(31.6341 -8.79898 0)
(50.4695 -18.9383 0)
(36.6393 -31.8856 0)
(16.1717 -37.2093 0)
(53.511 -38.5189 0)
(119.416 -38.0467 0)
(181.445 -30.7414 0)
(200.579 -21.4957 0)
(203.349 -20.6114 0)
(193.163 -21.9521 0)
(227.316 -28.4836 0)
(253.064 -43.0693 0)
(254.705 -37.7123 0)
(277.558 -8.93272 0)
(284.982 18.9351 0)
(281.082 22.2582 0)
(273.615 28.5668 0)
(263.53 51.5763 0)
(248.404 56.0736 0)
(215.374 32.0221 0)
(180.893 8.8399 0)
(147.572 -5.80367 0)
(114.554 -9.5951 0)
(84.5821 -7.64207 0)
(102.347 2.08912 0)
(148.479 18.5992 0)
(142.433 21.8342 0)
(127.402 18.7857 0)
(155.714 17.6417 0)
(185.288 13.1517 0)
(175.985 -8.45488 0)
(163.327 -12.6205 0)
(178.439 7.49087 0)
(175.695 22.6849 0)
(156.911 5.57448 0)
(127.326 -10.3363 0)
(101.079 -8.1149 0)
(99.8954 -9.54092 0)
(103.384 -23.9642 0)
(97.461 -36.2141 0)
(116.344 -29.0977 0)
(156.087 -14.9403 0)
(161.226 -12.6503 0)
(130.667 -9.32953 0)
(129.019 -1.39459 0)
(153.4 11.5567 0)
(163.478 6.97374 0)
(165.565 -13.4604 0)
(168.445 -19.8528 0)
(166.222 -21.3902 0)
(124.295 -20.5632 0)
(90.1649 -8.82887 0)
(68.278 12.3402 0)
(65.2694 23.7487 0)
(89.705 18.7003 0)
(112.308 15.0113 0)
(93.1242 14.0975 0)
(101.456 13.5164 0)
(69.1358 16.9148 0)
(26.0229 33.6263 0)
(-0.933017 51.2362 0)
(-10.291 57.7094 0)
(-55.2791 61.1443 0)
(-124.457 46.9977 0)
(-64.5907 -0.757449 0)
(-0.024793 -88.5895 0)
(21.9054 -77.3644 0)
(34.2845 -66.9103 0)
(39.6882 -62.9099 0)
(51.7782 -57.9108 0)
(68.305 -48.6956 0)
(91.581 -33.7722 0)
(99.4449 -20.401 0)
(108.964 -11.8128 0)
(117.742 5.83348 0)
(139.988 17.02 0)
(130.852 0.90775 0)
(123.363 -14.0344 0)
(141.987 -19.2547 0)
(133.236 -16.5874 0)
(111.492 -4.53338 0)
(117.135 -0.699705 0)
(73.5362 -2.92857 0)
(28.7339 14.1594 0)
(21.9115 27.9143 0)
(-31.6352 23.2695 0)
(-102.677 11.9783 0)
(-126.954 5.59387 0)
(-152.961 7.25813 0)
(-165.149 15.0224 0)
(-153.362 21.4966 0)
(-178.956 24.2987 0)
(-186.827 22.6734 0)
(-169.853 15.8715 0)
(-139.374 9.156 0)
(-134.255 1.0214 0)
(-132.585 -13.7405 0)
(-136.814 -19.4057 0)
(-128.014 -21.4936 0)
(-131.988 -23.8973 0)
(-72.0551 -17.1055 0)
(-39.1447 -18.4768 0)
(-62.0909 -29.4841 0)
(-72.4947 -40.7838 0)
(-47.0536 -50.9145 0)
(17.9452 -53.0376 0)
(80.4919 -41.7433 0)
(117.575 -25.3501 0)
(117.226 -20.793 0)
(118.282 -25.7667 0)
(160.635 -34.8901 0)
(182.847 -47.2015 0)
(182.461 -40.6295 0)
(190.035 -12.1806 0)
(217.334 18.9025 0)
(221.352 24.6885 0)
(187.37 29.29 0)
(191.906 53.9368 0)
(188.44 62.3922 0)
(164.052 39.5505 0)
(119.181 18.1356 0)
(78.7591 5.07757 0)
(31.5119 -1.88147 0)
(-2.90833 -5.54155 0)
(4.95103 -3.17374 0)
(43.5088 12.6596 0)
(49.481 19.8537 0)
(55.1178 14.5283 0)
(90.94 11.4463 0)
(122.853 12.2127 0)
(110.107 -5.84645 0)
(73.9449 -13.9556 0)
(96.4026 5.55609 0)
(114.92 25.5655 0)
(99.4031 12.0361 0)
(55.8728 -2.97141 0)
(25.5104 -4.75125 0)
(28.9587 -9.59424 0)
(29.5776 -24.0225 0)
(15.041 -36.7234 0)
(15.3897 -33.6866 0)
(45.9119 -20.3661 0)
(43.9329 -11.113 0)
(27.9984 -6.46343 0)
(21.4554 -2.76397 0)
(40.6239 7.50186 0)
(62.157 4.02807 0)
(66.9307 -14.919 0)
(74.6371 -19.1284 0)
(84.3 -15.8359 0)
(29.4035 -10.6102 0)
(-6.9891 -0.879728 0)
(-24.8345 13.661 0)
(-16.2426 20.2771 0)
(-0.214298 14.4431 0)
(17.4353 13.5423 0)
(11.4256 14.8655 0)
(10.4166 16.609 0)
(-12.0491 25.325 0)
(-51.4071 40.8041 0)
(-51.0488 55.6014 0)
(-66.8164 65.989 0)
(-117.315 70.6284 0)
(-154.528 49.7663 0)
(-103.647 -4.18824 0)
(-7.16723 -90.8297 0)
(9.54124 -79.396 0)
(13.8571 -68.4172 0)
(12.2401 -64.5307 0)
(16.5459 -60.4751 0)
(25.9162 -52.4341 0)
(43.9814 -37.1065 0)
(57.0347 -22.3315 0)
(64.2727 -14.3966 0)
(71.0499 1.76861 0)
(100.238 15.0956 0)
(95.9228 2.2534 0)
(86.9758 -13.9344 0)
(72.1879 -17.9962 0)
(78.0087 -14.4447 0)
(46.9794 -2.32645 0)
(59.5283 5.05338 0)
(12.2649 8.40802 0)
(-42.6287 21.0488 0)
(-49.3361 36.5331 0)
(-102.859 38.9186 0)
(-174.443 25.7388 0)
(-231.859 16.0667 0)
(-283.966 12.5136 0)
(-283.445 14.9711 0)
(-284.541 23.8349 0)
(-316.354 27.2287 0)
(-304.385 20.5783 0)
(-284.157 11.4312 0)
(-276.718 4.41347 0)
(-248.475 -0.224429 0)
(-251.879 -12.2543 0)
(-256.377 -19.597 0)
(-249.546 -22.8557 0)
(-257.403 -30.6751 0)
(-214.085 -28.2186 0)
(-159.716 -20.2701 0)
(-177.981 -27.2505 0)
(-187.162 -43.6426 0)
(-151.412 -59.4003 0)
(-120.86 -66.3222 0)
(-72.7167 -55.7734 0)
(-15.8717 -33.1024 0)
(12.9505 -23.2174 0)
(23.7385 -30.8841 0)
(65.2733 -40.9091 0)
(80.2381 -49.6281 0)
(73.0502 -42.5621 0)
(73.0723 -17.31 0)
(115.292 14.9639 0)
(134.461 28.4415 0)
(86.7426 31.3426 0)
(99.3149 53.3985 0)
(112.75 66.2072 0)
(94.4671 47.3776 0)
(41.9149 29.1634 0)
(-7.24296 16.9534 0)
(-58.5764 7.39136 0)
(-91.9683 -1.59313 0)
(-97.2456 -5.35541 0)
(-72.4025 6.46423 0)
(-52.1503 13.7915 0)
(-30.2572 8.73862 0)
(-0.544827 5.06909 0)
(31.5552 10.891 0)
(21.2174 -0.276461 0)
(-25.4455 -12.2527 0)
(-12.2555 0.691497 0)
(23.271 24.6744 0)
(27.5411 18.741 0)
(-32.0729 5.83794 0)
(-53.2995 -1.53267 0)
(-44.9868 -8.60724 0)
(-54.6919 -21.4908 0)
(-79.6806 -33.9754 0)
(-86.9295 -35.3015 0)
(-69.7622 -22.2023 0)
(-80.2379 -8.24024 0)
(-99.5177 -5.18997 0)
(-86.809 -5.43076 0)
(-68.0369 3.51971 0)
(-51.6962 0.0482437 0)
(-43.8462 -17.6226 0)
(-32.8581 -20.3199 0)
(-26.2619 -10.8696 0)
(-69.46 -2.02554 0)
(-93.6878 5.72963 0)
(-109.091 15.3236 0)
(-102.581 17.8645 0)
(-84.9842 10.4617 0)
(-52.3895 11.0426 0)
(-64.6919 15.2737 0)
(-63.5465 19.5167 0)
(-78.4989 31.7485 0)
(-115.527 45.3294 0)
(-114.251 58.2016 0)
(-131.367 72.4034 0)
(-154.552 74.5842 0)
(-168.52 49.1934 0)
(-111.515 -6.07502 0)
(-10.9546 -91.0546 0)
(-2.32035 -79.0303 0)
(-10.401 -68.1026 0)
(-18.5787 -64.3452 0)
(-22.0606 -61.8592 0)
(-19.1292 -55.9104 0)
(-10.4366 -41.3068 0)
(4.90174 -25.3005 0)
(10.3318 -17.0644 0)
(23.6792 -2.76705 0)
(45.4226 12.6418 0)
(49.3307 3.54061 0)
(36.7959 -10.1598 0)
(20.8946 -14.8479 0)
(-2.97047 -11.1249 0)
(-6.03128 -0.0768587 0)
(-24.7703 10.113 0)
(-48.6183 18.9828 0)
(-97.2574 31.0318 0)
(-144.251 46.5955 0)
(-190.637 52.9956 0)
(-247.466 42.4149 0)
(-319.169 31.196 0)
(-379.117 19.4585 0)
(-387.035 16.7025 0)
(-415.282 27.7022 0)
(-428.164 29.8686 0)
(-439.325 18.4855 0)
(-418.708 8.5368 0)
(-409.615 -0.0577714 0)
(-394.111 -4.03409 0)
(-382.53 -11.777 0)
(-388.503 -20.0337 0)
(-373.442 -23.9102 0)
(-377.342 -33.75 0)
(-360.82 -38.8214 0)
(-301.23 -25.6466 0)
(-296.328 -26.8533 0)
(-307.139 -46.6517 0)
(-279.274 -63.9594 0)
(-258.574 -72.6359 0)
(-233.689 -69.5212 0)
(-160.124 -48.3554 0)
(-113.927 -31.942 0)
(-88.0564 -37.0455 0)
(-51.971 -45.7421 0)
(-39.9612 -50.8352 0)
(-48.5059 -43.4921 0)
(-42.1474 -22.9558 0)
(-2.59956 8.36014 0)
(27.4922 30.8809 0)
(-19.2263 33.6844 0)
(-11.1224 49.8192 0)
(22.105 67.4638 0)
(4.54343 56.8178 0)
(-50.6129 43.1982 0)
(-99.6164 30.7051 0)
(-146.916 16.4722 0)
(-175.19 3.82823 0)
(-190.135 -4.39665 0)
(-178.083 2.02712 0)
(-165.488 6.55991 0)
(-146.745 1.18522 0)
(-104.541 -1.16481 0)
(-81.1884 9.25755 0)
(-86.9374 5.42159 0)
(-127.159 -8.68291 0)
(-124.967 -3.82056 0)
(-83.5321 20.8163 0)
(-79.7797 24.5477 0)
(-126.333 11.9498 0)
(-129.849 0.975598 0)
(-136.243 -6.99374 0)
(-138.042 -17.4877 0)
(-171.977 -29.0233 0)
(-194.872 -33.8337 0)
(-180.251 -22.0785 0)
(-199.375 -6.28588 0)
(-196.858 -5.30584 0)
(-211.77 -9.55885 0)
(-159.457 -0.300573 0)
(-153.22 -2.27627 0)
(-162.387 -18.786 0)
(-157.469 -22.4607 0)
(-126.677 -9.20317 0)
(-161.368 3.73295 0)
(-163.609 9.72208 0)
(-179.727 16.1835 0)
(-172.017 14.8332 0)
(-142.923 5.33812 0)
(-143.873 8.58291 0)
(-135.707 16.134 0)
(-148.105 22.7988 0)
(-171.775 36.429 0)
(-170.182 48.2511 0)
(-183.697 60.6663 0)
(-163.505 74.0831 0)
(-171.697 73.7154 0)
(-192.076 45.0499 0)
(-95.0969 -8.6605 0)
(-22.3386 -88.8961 0)
(-18.9309 -76.2108 0)
(-36.2812 -65.7038 0)
(-52.0229 -62.0683 0)
(-63.7682 -60.639 0)
(-64.207 -55.6402 0)
(-67.7078 -43.065 0)
(-53.1953 -27.7326 0)
(-46.8417 -19.752 0)
(-36.5138 -7.72882 0)
(-6.38779 9.92053 0)
(-5.88006 4.76072 0)
(-21.8361 -6.11617 0)
(-40.3035 -9.04665 0)
(-74.1182 -6.39883 0)
(-100.381 4.32511 0)
(-119.932 14.7712 0)
(-128.296 26.3797 0)
(-176.099 42.6693 0)
(-222.505 58.0643 0)
(-252.11 67.158 0)
(-329.692 60.255 0)
(-393.588 47.4997 0)
(-445.823 31.8531 0)
(-497.164 25.3832 0)
(-533.957 32.6957 0)
(-540.033 32.4717 0)
(-564.411 18.4919 0)
(-545.646 5.10149 0)
(-540.014 -3.26041 0)
(-532.868 -8.39976 0)
(-511.057 -13.1265 0)
(-515.05 -21.6808 0)
(-493.429 -25.8276 0)
(-494.534 -33.722 0)
(-495.23 -45.6539 0)
(-449.434 -35.8714 0)
(-415.145 -30.5813 0)
(-430.65 -48.6721 0)
(-412.226 -68.4138 0)
(-395.385 -77.1356 0)
(-379.916 -80.2742 0)
(-318.609 -64.684 0)
(-259.365 -43.3694 0)
(-229.164 -44.9169 0)
(-181.395 -49.4812 0)
(-176.516 -51.3274 0)
(-188.453 -44.6572 0)
(-168.394 -28.9116 0)
(-138.003 0.92823 0)
(-104.006 30.7116 0)
(-123.645 35.2892 0)
(-131.4 46.1678 0)
(-82.7145 65.8304 0)
(-105.064 64.5367 0)
(-154.941 55.5404 0)
(-205.443 42.123 0)
(-241.118 24.703 0)
(-281.112 8.21852 0)
(-270.891 -2.66761 0)
(-274.881 1.40381 0)
(-283.242 2.1261 0)
(-258.525 -5.41548 0)
(-237.805 -6.539 0)
(-214.967 5.91741 0)
(-189.965 7.38424 0)
(-225.429 -4.73049 0)
(-236.239 -7.5448 0)
(-180.797 16.1647 0)
(-186.772 28.3163 0)
(-217.804 17.326 0)
(-243.11 1.55835 0)
(-221.921 -5.5422 0)
(-245.526 -13.4817 0)
(-258.859 -22.5281 0)
(-291.417 -29.3028 0)
(-301.666 -20.0778 0)
(-309.343 -5.14016 0)
(-308.795 -4.56122 0)
(-309.087 -13.5799 0)
(-282.808 -6.87705 0)
(-256.122 -3.27784 0)
(-262.711 -19.4045 0)
(-250.796 -25.6259 0)
(-223.274 -10.0305 0)
(-246.404 7.22756 0)
(-262.84 11.6947 0)
(-246.934 14.882 0)
(-218.93 11.3183 0)
(-227.908 3.36199 0)
(-209.649 7.46871 0)
(-219.349 17.3878 0)
(-221.523 26.8622 0)
(-234.851 38.436 0)
(-243.669 48.9033 0)
(-223.702 59.3603 0)
(-207.527 70.9477 0)
(-187.093 68.2945 0)
(-196.766 36.6651 0)
(-80.0747 -12.5454 0)
(-33.7988 -83.2006 0)
(-36.988 -70.8769 0)
(-63.1405 -60.8542 0)
(-85.1559 -57.6279 0)
(-103.809 -57.8791 0)
(-117.207 -54.7053 0)
(-120.813 -44.9264 0)
(-101.852 -29.6364 0)
(-108.104 -21.1685 0)
(-104.208 -13.2182 0)