/*--------------------------------*- C++ -*----------------------------------*\
| =========                 |                                                 |
| \\      /  F ield         | foam-extend: Open Source CFD                    |
|  \\    /   O peration     | Version:     5.0                                |
|   \\  /    A nd           | Web:         http://www.foam-extend.org         |
|    \\/     M anipulation  |                                                 |
\*---------------------------------------------------------------------------*/
FoamFile
{
    version     2.0;
    format      ascii;
    class       volVectorField;
    location    "0.07";
    object      bodyForce;
}
// * * * * * * * * * * * * * * * * * * * * * * * * * * * * * * * * * * * * * //

dimensions      [0 1 -2 0 0 0 0];

internalField   nonuniform List<vector> 
4000
(
(1642.54 -0 0)
(1198.17 -0 0)
(-183.59 0 0)
(-2416.25 0 0)
(-3525.83 0 0)
(-3690.09 0 0)
(-4692.28 0 0)
(-4171.48 0 0)
(-5027.3 0 0)
(-5571.61 0 0)
(-11085.9 0 0)
(-16232.5 0 0)
(-21412.4 0 0)
(-31147.7 0 0)
(-39396.4 0 0)
(-50644.3 0 0)
(-62353.1 0 0)
(-77344.8 0 0)
(-90853 0 0)
(-107716 0 0)
(-133713 0 0)
(-176439 0 0)
(-211140 0 0)
(-234719 0 0)
(-248861 0 0)
(-275689 0 0)
(-279450 0 0)
(-295148 0 0)
(-292672 0 0)
(-268803 0 0)
(-240113 0 0)
(-242437 0 0)
(-235160 0 0)
(-227992 0 0)
(-252441 0 0)
(-257387 0 0)
(-265532 0 0)
(-260436 0 0)
(-287551 0 0)
(-287669 0 0)
(-305746 0 0)
(-307810 0 0)
(-320175 0 0)
(-337183 0 0)
(-322318 0 0)
(-317772 0 0)
(-294700 0 0)
(-261409 0 0)
(-247662 0 0)
(-213769 0 0)
(-174329 0 0)
(-147207 0 0)
(-124479 0 0)
(-101961 0 0)
(-92768.1 0 0)
(-76780.2 0 0)
(-73499 0 0)
(-64319.7 0 0)
(-60444.3 0 0)
(-59234.8 0 0)
(-52367.8 0 0)
(-50221.4 0 0)
(-43175.3 0 0)
(-37635.8 0 0)
(-35210.3 0 0)
(-35123 0 0)
(-29428.9 0 0)
(-24414.6 0 0)
(-20600.7 0 0)
(-18955.6 0 0)
(-13475.4 0 0)
(-10119.3 0 0)
(-8064.69 0 0)
(-9084.52 0 0)
(-10111.3 0 0)
(-10128.3 0 0)
(-12427 0 0)
(-8509.23 0 0)
(-8576.2 0 0)
(-5903.69 0 0)
(-12696.9 0 0)
(-5955.06 0 0)
(-7645.33 0 0)
(-4551.56 0 0)
(-2689.65 0 0)
(-10697.9 0 0)
(-3103.43 0 0)
(15.5363 -0 0)
(-11174.7 0 0)
(-4226.94 0 0)
(-10285.6 0 0)
(-1186.14 0 0)
(-6535.39 0 0)
(4180.04 -0 0)
(8633.93 -0 0)
(-156.132 0 0)
(-710.625 0 0)
(1354.99 -0 0)
(-4013.37 0 0)
(-15477.1 0 0)
(1046.78 -0 0)
(-480.975 0 0)
(555.017 -0 0)
(-6564.68 0 0)
(-8116.51 0 0)
(-6176.43 0 0)
(-13828 0 0)
(-16441.3 0 0)
(-16054 0 0)
(-11081.8 0 0)
(-22399.9 0 0)
(-27297 0 0)
(-34976.8 0 0)
(-58916.2 0 0)
(-67964.1 0 0)
(-89565.2 0 0)
(-107537 0 0)
(-133137 0 0)
(-159687 0 0)
(-188901 0 0)
(-226482 0 0)
(-259988 0 0)
(-272309 0 0)
(-272136 0 0)
(-283796 0 0)
(-297259 0 0)
(-291071 0 0)
(-270225 0 0)
(-242371 0 0)
(-220257 0 0)
(-216529 0 0)
(-206188 0 0)
(-202273 0 0)
(-207129 0 0)
(-245057 0 0)
(-253012 0 0)
(-284835 0 0)
(-303012 0 0)
(-304160 0 0)
(-335127 0 0)
(-349878 0 0)
(-383302 0 0)
(-407362 0 0)
(-412828 0 0)
(-428163 0 0)
(-450902 0 0)
(-436332 0 0)
(-432469 0 0)
(-405591 0 0)
(-385542 0 0)
(-354698 0 0)
(-298408 0 0)
(-257945 0 0)
(-208307 0 0)
(-185603 0 0)
(-156427 0 0)
(-149309 0 0)
(-125621 0 0)
(-127271 0 0)
(-108574 0 0)
(-111016 0 0)
(-93871.4 0 0)
(-94305.6 0 0)
(-80545.5 0 0)
(-71308.7 0 0)
(-74447 0 0)
(-57926 0 0)
(-53915.5 0 0)
(-41163.7 0 0)
(-37893.2 0 0)
(-27434.7 0 0)
(-21696.5 0 0)
(-16916.6 0 0)
(-21031.5 0 0)
(-24418.6 0 0)
(-20816.8 0 0)
(-19368.5 0 0)
(-16059.4 0 0)
(-25607 0 0)
(-16107.6 0 0)
(-24345.7 0 0)
(-11118.5 0 0)
(-8643.04 0 0)
(-17620.2 0 0)
(-10342.3 0 0)
(-20622.4 0 0)
(-12393 0 0)
(-5676.21 0 0)
(-21388.8 0 0)
(-15373.5 0 0)
(-12142.6 0 0)
(-6366.37 0 0)
(-15123.8 0 0)
(-2132.16 0 0)
(4063.6 -0 0)
(-7571.21 0 0)
(4452.29 -0 0)
(-10638.8 0 0)
(-11722.2 0 0)
(-30498.9 0 0)
(-3720.84 0 0)
(-5242.2 0 0)
(-2075.12 0 0)
(-11461.6 0 0)
(-6730.07 0 0)
(-15646 0 0)
(-9096.33 0 0)
(-16049.6 0 0)
(-11401.1 0 0)
(-17449.5 0 0)
(-18460.6 0 0)
(-20663.1 0 0)
(-36271.6 0 0)
(-57276.4 0 0)
(-63670.8 0 0)
(-91135.4 0 0)
(-106507 0 0)
(-130775 0 0)
(-149264 0 0)
(-180426 0 0)
(-204860 0 0)
(-226767 0 0)
(-231611 0 0)
(-229241 0 0)
(-247614 0 0)
(-234739 0 0)
(-233093 0 0)
(-215266 0 0)
(-204252 0 0)
(-178415 0 0)
(-172909 0 0)
(-158632 0 0)
(-181148 0 0)
(-189812 0 0)
(-216310 0 0)
(-236694 0 0)
(-256348 0 0)
(-270674 0 0)
(-296396 0 0)
(-301959 0 0)
(-323556 0 0)
(-334774 0 0)
(-357720 0 0)
(-384396 0 0)
(-402304 0 0)
(-398743 0 0)
(-393776 0 0)
(-399095 0 0)
(-375290 0 0)
(-372699 0 0)
(-350046 0 0)
(-307072 0 0)
(-273368 0 0)
(-223408 0 0)
(-187439 0 0)
(-178705 0 0)
(-157134 0 0)
(-133870 0 0)
(-140459 0 0)
(-119834 0 0)
(-124920 0 0)
(-107634 0 0)
(-108882 0 0)
(-89810.3 0 0)
(-93681.8 0 0)
(-79527.1 0 0)
(-62275.2 0 0)
(-63543.8 0 0)
(-47982 0 0)
(-46299.5 0 0)
(-33384.9 0 0)
(-33142.6 0 0)
(-28742.1 0 0)
(-22118 0 0)
(-17291.5 0 0)
(-33008.2 0 0)
(-20313.2 0 0)
(-34106 0 0)
(-23852.6 0 0)
(-31547 0 0)
(-20307.8 0 0)
(-12626.9 0 0)
(-25283.1 0 0)
(-17951.9 0 0)
(-30446.9 0 0)
(-20608.8 0 0)
(-32185.8 0 0)
(-23646.4 0 0)
(-20768.7 0 0)
(-31932.2 0 0)
(-40069.5 0 0)
(-32260.4 0 0)
(-17216.9 0 0)
(-25965.9 0 0)
(-30011.1 0 0)
(-14963.9 0 0)
(-5886.26 0 0)
(-6604.9 0 0)
(-24946.5 0 0)
(-49876.7 0 0)
(-5740.53 0 0)
(-4360.99 0 0)
(-10029.2 0 0)
(-5488.93 0 0)
(-15259.4 0 0)
(-9017.2 0 0)
(-17362.9 0 0)
(-8794.3 0 0)
(-18960.1 0 0)
(-13382.7 0 0)
(-24975.8 0 0)
(-19856.7 0 0)
(-37509.4 0 0)
(-41660.9 0 0)
(-53529.1 0 0)
(-84680 0 0)
(-96643.3 0 0)
(-113048 0 0)
(-139245 0 0)
(-166930 0 0)
(-195134 0 0)
(-202371 0 0)
(-201136 0 0)
(-199073 0 0)
(-210490 0 0)
(-191708 0 0)
(-184643 0 0)
(-183436 0 0)
(-155418 0 0)
(-139421 0 0)
(-143334 0 0)
(-147684 0 0)
(-143039 0 0)
(-169599 0 0)
(-198603 0 0)
(-219140 0 0)
(-218241 0 0)
(-235738 0 0)
(-266214 0 0)
(-279008 0 0)
(-285360 0 0)
(-299192 0 0)
(-318423 0 0)
(-325354 0 0)
(-338010 0 0)
(-338286 0 0)
(-354743 0 0)
(-342792 0 0)
(-328508 0 0)
(-321908 0 0)
(-309583 0 0)
(-286883 0 0)
(-261320 0 0)
(-217899 0 0)
(-198802 0 0)
(-185722 0 0)
(-158092 0 0)
(-143555 0 0)
(-145996 0 0)
(-126732 0 0)
(-127735 0 0)
(-125412 0 0)
(-105852 0 0)
(-106213 0 0)
(-106864 0 0)
(-82907.4 0 0)
(-65262.5 0 0)
(-66572.1 0 0)
(-55660.9 0 0)
(-42269.8 0 0)
(-42846.4 0 0)
(-39771.7 0 0)
(-27275.2 0 0)
(-32303.8 0 0)
(-25001.9 0 0)
(-23844.7 0 0)
(-20132.1 0 0)
(-36769.4 0 0)
(-31342.2 0 0)
(-26562.8 0 0)
(-18668.9 0 0)
(-30341.8 0 0)
(-34362.5 0 0)
(-35363.9 0 0)
(-27070.2 0 0)
(-36784.4 0 0)
(-28413.9 0 0)
(-43051.2 0 0)
(-32427 0 0)
(-34863 0 0)
(-29153.2 0 0)
(-43216 0 0)
(-28021.9 0 0)
(-37754.1 0 0)
(-26758.4 0 0)
(-15423 0 0)
(-10575.3 0 0)
(-24888.9 0 0)
(-23195.8 0 0)
(-42459.9 0 0)
(-6337.72 0 0)
(-266.808 0 0)
(-8142.8 0 0)
(-10203.3 0 0)
(-7217.01 0 0)
(-17276.3 0 0)
(-10848.2 0 0)
(-18233 0 0)
(-20580.6 0 0)
(-24577.6 0 0)
(-30432.6 0 0)
(-20217.7 0 0)
(-34088.7 0 0)
(-36634.4 0 0)
(-59185.4 0 0)
(-82431.8 0 0)
(-85984.5 0 0)
(-108809 0 0)
(-120226 0 0)
(-151447 0 0)
(-178988 0 0)
(-179587 0 0)
(-174782 0 0)
(-174736 0 0)
(-181372 0 0)
(-170141 0 0)
(-155415 0 0)
(-137118 0 0)
(-115986 0 0)
(-112635 0 0)
(-107034 0 0)
(-134798 0 0)
(-140148 0 0)
(-159116 0 0)
(-188226 0 0)
(-184410 0 0)
(-203855 0 0)
(-212868 0 0)
(-214205 0 0)
(-213413 0 0)
(-229133 0 0)
(-264472 0 0)
(-269313 0 0)
(-285867 0 0)
(-293647 0 0)
(-301356 0 0)
(-307782 0 0)
(-306120 0 0)
(-281426 0 0)
(-280731 0 0)
(-269147 0 0)
(-259976 0 0)
(-244688 0 0)
(-227401 0 0)
(-189537 0 0)
(-181008 0 0)
(-171256 0 0)
(-161077 0 0)
(-140788 0 0)
(-140376 0 0)
(-125789 0 0)
(-115339 0 0)
(-116373 0 0)
(-116090 0 0)
(-98869.8 0 0)
(-78911.1 0 0)
(-78710.9 0 0)
(-62454.8 0 0)
(-61961.8 0 0)
(-45740.1 0 0)
(-44814.4 0 0)
(-39699.9 0 0)
(-36966.6 0 0)
(-27829.5 0 0)
(-36570.7 0 0)
(-29648.7 0 0)
(-37211.5 0 0)
(-30688.3 0 0)
(-42489 0 0)
(-29745.5 0 0)
(-36831.6 0 0)
(-33463.5 0 0)
(-25188.2 0 0)
(-20507.9 0 0)
(-37488 0 0)
(-29056.7 0 0)
(-48354.9 0 0)
(-37579.2 0 0)
(-50745.5 0 0)
(-38557 0 0)
(-51962.1 0 0)
(-39634.5 0 0)
(-49843 0 0)
(-36049.9 0 0)
(-43390.2 0 0)
(-27763.1 0 0)
(-34337.9 0 0)
(-28540.5 0 0)
(-27297.8 0 0)
(-48872.3 0 0)
(-8205.97 0 0)
(-2610.86 0 0)
(-3175.67 0 0)
(-3302.46 0 0)
(-11979.3 0 0)
(-9603.96 0 0)
(-20534.9 0 0)
(-24081.8 0 0)
(-13589.6 0 0)
(-22242.1 0 0)
(-15187.5 0 0)
(-15374 0 0)
(-18186.9 0 0)
(-43627.1 0 0)
(-50337.1 0 0)
(-66933.6 0 0)
(-88283.1 0 0)
(-106216 0 0)
(-115876 0 0)
(-136817 0 0)
(-150883 0 0)
(-151886 0 0)
(-150551 0 0)
(-156315 0 0)
(-154847 0 0)
(-127475 0 0)
(-119808 0 0)
(-102270 0 0)
(-63964.9 0 0)
(-62776.1 0 0)
(-60241.4 0 0)
(-94154.2 0 0)
(-129176 0 0)
(-146747 0 0)
(-139024 0 0)
(-156851 0 0)
(-151381 0 0)
(-165698 0 0)
(-160006 0 0)
(-180238 0 0)
(-211235 0 0)
(-207321 0 0)
(-230178 0 0)
(-238304 0 0)
(-257100 0 0)
(-266387 0 0)
(-261934 0 0)
(-266916 0 0)
(-244200 0 0)
(-242999 0 0)
(-231669 0 0)
(-224526 0 0)
(-224636 0 0)
(-223143 0 0)
(-191868 0 0)
(-185025 0 0)
(-178082 0 0)
(-152487 0 0)
(-152421 0 0)
(-131513 0 0)
(-136142 0 0)
(-115838 0 0)
(-118282 0 0)
(-104568 0 0)
(-88862.8 0 0)
(-75616 0 0)
(-80300.5 0 0)
(-72020 0 0)
(-57313.1 0 0)
(-55162.4 0 0)
(-41080.8 0 0)
(-28613.6 0 0)
(-31981.6 0 0)
(-35142.7 0 0)
(-28918.7 0 0)
(-38392 0 0)
(-33849.7 0 0)
(-44543.3 0 0)
(-35589.5 0 0)
(-44005.4 0 0)
(-32573.5 0 0)
(-21928.5 0 0)
(-39290.7 0 0)
(-30665.2 0 0)
(-30624 0 0)
(-45474.9 0 0)
(-60860.4 0 0)
(-49570.5 0 0)
(-40276.5 0 0)
(-49268.4 0 0)
(-62019 0 0)
(-46189.8 0 0)
(-58237.1 0 0)
(-60649.6 0 0)
(-43168.2 0 0)
(-47971.1 0 0)
(-36467 0 0)
(-36130.1 0 0)
(-33764.1 0 0)
(-57328.8 0 0)
(-9499.9 0 0)
(-6880.95 0 0)
(-6588.64 0 0)
(-8717.69 0 0)
(-5301.85 0 0)
(-14105.6 0 0)
(-23887.8 0 0)
(-17875.9 0 0)
(-10358.4 0 0)
(-10900.4 0 0)
(-8429.44 0 0)
(-23032 0 0)
(-19388.8 0 0)
(-45807.1 0 0)
(-51738.1 0 0)
(-74368.6 0 0)
(-81417.6 0 0)
(-101635 0 0)
(-112614 0 0)
(-120383 0 0)
(-124999 0 0)
(-120020 0 0)
(-117244 0 0)
(-123053 0 0)
(-120408 0 0)
(-100650 0 0)
(-83867.9 0 0)
(-41393.2 0 0)
(-15316.3 0 0)
(-18159.5 0 0)
(-28351.7 0 0)
(-58711.4 0 0)
(-98750 0 0)
(-128009 0 0)
(-122831 0 0)
(-122956 0 0)
(-142838 0 0)
(-148818 0 0)
(-142981 0 0)
(-159264 0 0)
(-184863 0 0)
(-187347 0 0)
(-199143 0 0)
(-215611 0 0)
(-219796 0 0)
(-231426 0 0)
(-227565 0 0)
(-241092 0 0)
(-220144 0 0)
(-215930 0 0)
(-202920 0 0)
(-202960 0 0)
(-204956 0 0)
(-197996 0 0)
(-184956 0 0)
(-175922 0 0)
(-175204 0 0)
(-154747 0 0)
(-153320 0 0)
(-129855 0 0)
(-137097 0 0)
(-119421 0 0)
(-107502 0 0)
(-107219 0 0)
(-88123 0 0)
(-85086 0 0)
(-87585.6 0 0)
(-66330.7 0 0)
(-64338.3 0 0)
(-47972.8 0 0)
(-49548.2 0 0)
(-33316.1 0 0)
(-23545.2 0 0)
(-25225.3 0 0)
(-34366.5 0 0)
(-31139.8 0 0)
(-42744.9 0 0)
(-39767.3 0 0)
(-46258.3 0 0)
(-49358.3 0 0)
(-38845.3 0 0)
(-26269.6 0 0)
(-44599.4 0 0)
(-42433 0 0)
(-51667.1 0 0)
(-46585 0 0)
(-56981.8 0 0)
(-68115.9 0 0)
(-51137 0 0)
(-62295 0 0)
(-50707.5 0 0)
(-61245.3 0 0)
(-68251.9 0 0)
(-51314.5 0 0)
(-55659.9 0 0)
(-45946.3 0 0)
(-33312.8 0 0)
(-36584.3 0 0)
(-37982.9 0 0)
(-47523 0 0)
(-10105.3 0 0)
(-5881.92 0 0)
(-11017.3 0 0)
(-3396.29 0 0)
(-9989.4 0 0)
(-5644.29 0 0)
(-18439.1 0 0)
(-15824 0 0)
(-18232.9 0 0)
(-8582.33 0 0)
(-17002.5 0 0)
(-17914.5 0 0)
(-23418.5 0 0)
(-47090.7 0 0)
(-64770.9 0 0)
(-70959.5 0 0)
(-86106.8 0 0)
(-93915.7 0 0)
(-106612 0 0)
(-106262 0 0)
(-104324 0 0)
(-102686 0 0)
(-104114 0 0)
(-103323 0 0)
(-95107.2 0 0)
(-62278.1 0 0)
(-18726.4 0 0)
(15079.4 -0 0)
(18355.4 -0 0)
(16126.3 -0 0)
(-5188.3 0 0)
(-20442.3 0 0)
(-57079.9 0 0)
(-82217 0 0)
(-74919.9 0 0)
(-91074.8 0 0)
(-111029 0 0)
(-107126 0 0)
(-125935 0 0)
(-153438 0 0)
(-160592 0 0)
(-180034 0 0)
(-190747 0 0)
(-188352 0 0)
(-197955 0 0)
(-215411 0 0)
(-211131 0 0)
(-225213 0 0)
(-205993 0 0)
(-199426 0 0)
(-188759 0 0)
(-179641 0 0)
(-187568 0 0)
(-185752 0 0)
(-173784 0 0)
(-165097 0 0)
(-162675 0 0)
(-159665 0 0)
(-145857 0 0)
(-128450 0 0)
(-136220 0 0)
(-115271 0 0)
(-118018 0 0)
(-98288.8 0 0)
(-95741.7 0 0)
(-79464.5 0 0)
(-85105.6 0 0)
(-66152.2 0 0)
(-65600.7 0 0)
(-45717 0 0)
(-51257.3 0 0)
(-37179.3 0 0)
(-26655.7 0 0)
(-30294.9 0 0)
(-28297.3 0 0)
(-38181.3 0 0)
(-41399.6 0 0)
(-47174.2 0 0)
(-39627.1 0 0)
(-42750.4 0 0)
(-45315.6 0 0)
(-33155.3 0 0)
(-47875.6 0 0)
(-44667.4 0 0)
(-49392.1 0 0)
(-61920.4 0 0)
(-48318.7 0 0)
(-65898.5 0 0)
(-52567.4 0 0)
(-46607.3 0 0)
(-59131 0 0)
(-59467.4 0 0)
(-50824.8 0 0)
(-56717.4 0 0)
(-47510.9 0 0)
(-37544.5 0 0)
(-31848.2 0 0)
(-34732.6 0 0)
(-38407.5 0 0)
(-26984.7 0 0)
(-11132.5 0 0)
(-3640.35 0 0)
(-7263.74 0 0)
(-3806.61 0 0)
(-5360.52 0 0)
(-10636.5 0 0)
(-6753.42 0 0)
(-6115.66 0 0)
(-7484.45 0 0)
(-13608.2 0 0)
(-10753 0 0)
(-24793.8 0 0)
(-39219.3 0 0)
(-44817.6 0 0)
(-56957.9 0 0)
(-77663.4 0 0)
(-81219.3 0 0)
(-92475.4 0 0)
(-99439.3 0 0)
(-93156.8 0 0)
(-89408.4 0 0)
(-85194 0 0)
(-86322.8 0 0)
(-72528.7 0 0)
(-46695.6 0 0)
(-1794.66 0 0)
(24150.6 -0 0)
(47321.3 -0 0)
(47012.3 -0 0)
(19101.1 -0 0)
(6399.03 -0 0)
(-36772.6 0 0)
(-51438.5 0 0)
(-49191.6 0 0)
(-71122.9 0 0)
(-80321.1 0 0)
(-70907.9 0 0)
(-86002.5 0 0)
(-115322 0 0)
(-123156 0 0)
(-142488 0 0)
(-153429 0 0)
(-154008 0 0)
(-168782 0 0)
(-192027 0 0)
(-195127 0 0)
(-203975 0 0)
(-204590 0 0)
(-199465 0 0)
(-186201 0 0)
(-179282 0 0)
(-167325 0 0)
(-175197 0 0)
(-169714 0 0)
(-165441 0 0)
(-162309 0 0)
(-157783 0 0)
(-149365 0 0)
(-146461 0 0)
(-134586 0 0)
(-131740 0 0)
(-114392 0 0)
(-117980 0 0)
(-95818.7 0 0)
(-95843.2 0 0)
(-80246.4 0 0)
(-72267.3 0 0)
(-72618.7 0 0)
(-57157.2 0 0)
(-44689.3 0 0)
(-49876.2 0 0)
(-45293.3 0 0)
(-32432.4 0 0)
(-30584.9 0 0)
(-34418.8 0 0)
(-40043.7 0 0)
(-45724.6 0 0)
(-45063.8 0 0)
(-41164.5 0 0)
(-37488.3 0 0)
(-40634.2 0 0)
(-41304.1 0 0)
(-46592.7 0 0)
(-56442.5 0 0)
(-63005.3 0 0)
(-60472.3 0 0)
(-51188.3 0 0)
(-64108.2 0 0)
(-56370.9 0 0)
(-49830.6 0 0)
(-47532.3 0 0)
(-42226 0 0)
(-53593.6 0 0)
(-46431.8 0 0)
(-37287.6 0 0)
(-30118.7 0 0)
(-31883.1 0 0)
(-32398.4 0 0)
(-32647.3 0 0)
(-13905.7 0 0)
(-11796.5 0 0)
(-1042.86 0 0)
(-2077.73 0 0)
(-6460.2 0 0)
(-9044.89 0 0)
(-5606.9 0 0)
(-9220.61 0 0)
(-2814.57 0 0)
(-9340.02 0 0)
(-6783.44 0 0)
(-16329.8 0 0)
(-21057 0 0)
(-39922.1 0 0)
(-57231.3 0 0)
(-61845.4 0 0)
(-74813.6 0 0)
(-82795.5 0 0)
(-85156.4 0 0)
(-85591 0 0)
(-74352.4 0 0)
(-66293.3 0 0)
(-70604.8 0 0)
(-50760.3 0 0)
(-31530.7 0 0)
(6216.43 -0 0)
(41272.4 -0 0)
(72320 -0 0)
(72173.9 -0 0)
(69425.8 -0 0)
(31298.6 -0 0)
(18877.1 -0 0)
(5160.08 -0 0)
(-18546.7 0 0)
(-13120.5 0 0)
(-35612 0 0)
(-37528.8 0 0)
(-57631.3 0 0)
(-60156.3 0 0)
(-83841.2 0 0)
(-105204 0 0)
(-117987 0 0)
(-117377 0 0)
(-136120 0 0)
(-158756 0 0)
(-168457 0 0)
(-181103 0 0)
(-179553 0 0)
(-193707 0 0)
(-187357 0 0)
(-177976 0 0)
(-165102 0 0)
(-157905 0 0)
(-164318 0 0)
(-153799 0 0)
(-161029 0 0)
(-150156 0 0)
(-148364 0 0)
(-142088 0 0)
(-135343 0 0)
(-128949 0 0)
(-123762 0 0)
(-116698 0 0)
(-109687 0 0)
(-101555 0 0)
(-88019.1 0 0)
(-86548.6 0 0)
(-69149.1 0 0)
(-69738.1 0 0)
(-54441.2 0 0)
(-54532.3 0 0)
(-44203.7 0 0)
(-42935.9 0 0)
(-41937.7 0 0)
(-38567.5 0 0)
(-41110.4 0 0)
(-40887 0 0)
(-47108.1 0 0)
(-41051.7 0 0)
(-40503.4 0 0)
(-36993.8 0 0)
(-43638.8 0 0)
(-44856.5 0 0)
(-51323.4 0 0)
(-57670.9 0 0)
(-63105.5 0 0)
(-67918.2 0 0)
(-60833 0 0)
(-62471.1 0 0)
(-65260.7 0 0)
(-54324.4 0 0)
(-48144.8 0 0)
(-37337.3 0 0)
(-50384.6 0 0)
(-38921.7 0 0)
(-33634.4 0 0)
(-32927.9 0 0)
(-30187.2 0 0)
(-29897.8 0 0)
(-31393.6 0 0)
(-9845.65 0 0)
(-10340.4 0 0)
(-162.55 0 0)
(3155.92 -0 0)
(-3921.25 0 0)
(-6397.22 0 0)
(-6829.66 0 0)
(-3418.45 0 0)
(-5304.42 0 0)
(-2891.07 0 0)
(-9095.33 0 0)
(-10954.2 0 0)
(-28466.1 0 0)
(-37639.1 0 0)
(-60330.1 0 0)
(-71181.8 0 0)
(-72986.6 0 0)
(-77423.3 0 0)
(-75924.1 0 0)
(-65401.8 0 0)
(-57875.3 0 0)
(-48714.4 0 0)
(-42038.1 0 0)
(-9687.38 0 0)
(23972.1 -0 0)
(53172.3 -0 0)
(88893.7 -0 0)
(98315.4 -0 0)
(104503 -0 0)
(71703.8 -0 0)
(54021.8 -0 0)
(51337.6 -0 0)
(20402.2 -0 0)
(22697.1 -0 0)
(-2646.79 0 0)
(-4405.7 0 0)
(-25771.2 0 0)
(-29234.4 0 0)
(-43162.4 0 0)
(-66614.5 0 0)
(-73039.6 0 0)
(-93367 0 0)
(-103221 0 0)
(-125972 0 0)
(-133454 0 0)
(-149514 0 0)
(-162796 0 0)
(-157548 0 0)
(-176557 0 0)
(-164270 0 0)
(-165474 0 0)
(-154153 0 0)
(-153926 0 0)
(-150559 0 0)
(-142363 0 0)
(-151955 0 0)
(-141424 0 0)
(-141088 0 0)
(-135381 0 0)
(-127617 0 0)
(-123302 0 0)
(-118946 0 0)
(-107942 0 0)
(-107052 0 0)
(-96314 0 0)
(-93649.4 0 0)
(-80096.9 0 0)
(-73510.8 0 0)
(-63758.5 0 0)
(-61235.9 0 0)
(-51044.2 0 0)
(-50838.4 0 0)
(-40226.2 0 0)
(-45495.6 0 0)
(-47051.8 0 0)
(-49698.6 0 0)
(-46932.4 0 0)
(-40675.6 0 0)
(-44047 0 0)
(-36112.3 0 0)
(-42889.8 0 0)
(-39959.3 0 0)
(-53753.1 0 0)
(-48068.3 0 0)
(-58755.6 0 0)
(-61028.7 0 0)
(-60968 0 0)
(-58552.8 0 0)
(-67114.1 0 0)
(-64339.6 0 0)
(-57129.5 0 0)
(-54145.8 0 0)
(-41971.6 0 0)
(-42455.9 0 0)
(-37744 0 0)
(-35205.8 0 0)
(-34250.5 0 0)
(-29132.1 0 0)
(-27805.1 0 0)
(-22936.5 0 0)
(4214.7 -0 0)
(-8391.43 0 0)
(1254.14 -0 0)
(5001.2 -0 0)
(-2267.57 0 0)
(-3521.09 0 0)
(-4499.93 0 0)
(-3465.6 0 0)
(-736.946 0 0)
(-2762.71 0 0)
(-5582.85 0 0)
(-13392.1 0 0)
(-30636.6 0 0)
(-42293.2 0 0)
(-59494.4 0 0)
(-71535.9 0 0)
(-69834.2 0 0)
(-67526.3 0 0)
(-62527.9 0 0)
(-52153.9 0 0)
(-40356.9 0 0)
(-32254 0 0)
(-1373.68 0 0)
(27864.7 -0 0)
(62461.3 -0 0)
(86504.9 -0 0)
(116657 -0 0)
(134079 -0 0)
(116159 -0 0)
(101384 -0 0)
(80445.7 -0 0)
(54167.4 -0 0)
(50011.8 -0 0)
(27847.4 -0 0)
(22321.8 -0 0)
(19841 -0 0)
(850.392 -0 0)
(-27539.9 0 0)
(-36105.1 0 0)
(-39081.6 0 0)
(-59868.4 0 0)
(-69734.1 0 0)
(-91652.1 0 0)
(-99186 0 0)
(-109322 0 0)
(-127140 0 0)
(-135116 0 0)
(-147828 0 0)
(-151066 0 0)
(-144340 0 0)
(-153865 0 0)
(-142241 0 0)
(-142641 0 0)
(-137832 0 0)
(-140216 0 0)
(-140238 0 0)
(-136526 0 0)
(-132969 0 0)
(-126271 0 0)
(-118067 0 0)
(-114825 0 0)
(-111275 0 0)
(-100238 0 0)
(-100490 0 0)
(-93298.6 0 0)
(-89130.9 0 0)
(-80327.6 0 0)
(-69466.3 0 0)
(-64660.3 0 0)
(-57201 0 0)
(-58465.5 0 0)
(-48671.4 0 0)
(-46860.5 0 0)
(-56997.6 0 0)
(-56536 0 0)
(-50151.3 0 0)
(-41829.2 0 0)
(-47475.8 0 0)
(-36798.8 0 0)
(-42935.9 0 0)
(-35368.9 0 0)
(-38271.9 0 0)
(-55964 0 0)
(-50400.6 0 0)
(-48623.5 0 0)
(-43050.6 0 0)
(-53867.2 0 0)
(-65207.4 0 0)
(-67432.6 0 0)
(-59851.6 0 0)
(-59139.6 0 0)
(-58075.7 0 0)
(-39288.5 0 0)
(-38791.7 0 0)
(-33091.8 0 0)
(-31149.5 0 0)
(-29887.8 0 0)
(-28097.4 0 0)
(-27041.2 0 0)
(-16604.5 0 0)
(19016.9 -0 0)
(-8741.95 0 0)
(4748.47 -0 0)
(5966.43 -0 0)
(-1546.87 0 0)
(-1838.19 0 0)
(-4499.82 0 0)
(-3246.92 0 0)
(2904.41 -0 0)
(-1899.99 0 0)
(-7174.15 0 0)
(-21425.2 0 0)
(-33899.4 0 0)
(-46132.4 0 0)
(-56021.5 0 0)
(-67644.2 0 0)
(-63577.9 0 0)
(-56618 0 0)
(-48269.1 0 0)
(-37113.4 0 0)
(-28798.3 0 0)
(-13285 0 0)
(27773.9 -0 0)
(61055 -0 0)
(86395.1 -0 0)
(117796 -0 0)
(152596 -0 0)
(151168 -0 0)
(142975 -0 0)
(114068 -0 0)
(106665 -0 0)
(87262.3 -0 0)
(69657.5 -0 0)
(77705.3 -0 0)
(58582.4 -0 0)
(30388.9 -0 0)
(28230.7 -0 0)
(11037.2 -0 0)
(-2069.98 0 0)
(-24023.3 0 0)
(-45982 0 0)
(-57436.5 0 0)
(-71930 0 0)
(-76946.4 0 0)
(-94768.3 0 0)
(-103724 0 0)
(-120326 0 0)
(-128172 0 0)
(-133280 0 0)
(-135883 0 0)
(-143581 0 0)
(-132295 0 0)
(-128471 0 0)
(-130268 0 0)
(-128202 0 0)
(-135199 0 0)
(-128200 0 0)
(-114904 0 0)
(-115933 0 0)
(-104781 0 0)
(-107874 0 0)
(-102769 0 0)
(-88520.3 0 0)
(-92903 0 0)
(-88436.6 0 0)
(-87056.5 0 0)
(-77529.4 0 0)
(-63805 0 0)
(-59017.8 0 0)
(-60313.2 0 0)
(-58106.8 0 0)
(-51408.8 0 0)
(-57347.7 0 0)
(-63609.3 0 0)
(-58847.5 0 0)
(-42053 0 0)
(-48447.8 0 0)
(-39586.8 0 0)
(-46504.3 0 0)
(-39017.1 0 0)
(-47519.1 0 0)
(-50614.8 0 0)
(-42916 0 0)
(-26961.1 0 0)
(-34383 0 0)
(-46742.3 0 0)
(-57751 0 0)
(-55514.1 0 0)
(-57739.7 0 0)
(-69097.2 0 0)
(-65649.7 0 0)
(-59702.1 0 0)
(-47418.8 0 0)
(-30470.6 0 0)
(-31065.2 0 0)
(-25039.1 0 0)
(-26679.2 0 0)
(-23380.7 0 0)
(-25508.8 0 0)
(-22650.3 0 0)
(8358.85 -0 0)
(-9348.51 0 0)
(8151.35 -0 0)
(6940.34 -0 0)
(1692.17 -0 0)
(3930.92 -0 0)
(760.806 -0 0)
(-6108.62 0 0)
(1916.6 -0 0)
(-1852.77 0 0)
(-11337.5 0 0)
(-29489.4 0 0)
(-32895 0 0)
(-46888.6 0 0)
(-53337.7 0 0)
(-53422.6 0 0)
(-54696.2 0 0)
(-48159.3 0 0)
(-35652.9 0 0)
(-25350 0 0)
(-5195.96 0 0)
(21979.5 -0 0)
(51783.4 -0 0)
(82847.7 -0 0)
(124651 -0 0)
(153222 -0 0)
(164573 -0 0)
(167169 -0 0)
(140989 -0 0)
(120883 -0 0)
(126468 -0 0)
(93897.3 -0 0)
(99997.7 -0 0)
(75254.6 -0 0)
(70096.5 -0 0)
(46500.6 -0 0)
(40152.6 -0 0)
(12034.4 -0 0)
(9162.07 -0 0)
(-10747.5 0 0)
(-17005.9 0 0)
(-37721.3 0 0)
(-44123.6 0 0)
(-60552.2 0 0)
(-73766.5 0 0)
(-90306.5 0 0)
(-101870 0 0)
(-116451 0 0)
(-129108 0 0)
(-133459 0 0)
(-125967 0 0)
(-124186 0 0)
(-116568 0 0)
(-120005 0 0)
(-119521 0 0)
(-125784 0 0)
(-114604 0 0)
(-113337 0 0)
(-105715 0 0)
(-99021.5 0 0)
(-99188.6 0 0)
(-89793.1 0 0)
(-87779.4 0 0)
(-83261.4 0 0)
(-84793 0 0)
(-72573.8 0 0)
(-74359.3 0 0)
(-60182.5 0 0)
(-57533.7 0 0)
(-63730.6 0 0)
(-60269.4 0 0)
(-57722.5 0 0)
(-62646.5 0 0)
(-59832.7 0 0)
(-58821.1 0 0)
(-50304.9 0 0)
(-40972.8 0 0)
(-46654.8 0 0)
(-34464.8 0 0)
(-43708.9 0 0)
(-33350.1 0 0)
(-40450.2 0 0)
(-30476.5 0 0)
(-42046.9 0 0)
(-37656.6 0 0)
(-55469.9 0 0)
(-46180.6 0 0)
(-52171.5 0 0)
(-64183.6 0 0)
(-62601.9 0 0)
(-52481.4 0 0)
(-59331.4 0 0)
(-51442.1 0 0)
(-37682.6 0 0)
(-21778.6 0 0)
(-23245.2 0 0)
(-20925.1 0 0)
(-27453.1 0 0)
(-33392.7 0 0)
(-28282.7 0 0)
(2077.24 -0 0)
(-10363.7 0 0)
(11083.2 -0 0)
(10665.6 -0 0)
(7134.63 -0 0)
(329.669 -0 0)
(-2804.43 0 0)
(-4841.44 0 0)
(54.1673 -0 0)
(-11044.1 0 0)
(-14849.3 0 0)
(-30642.3 0 0)
(-34368.8 0 0)
(-31996 0 0)
(-39590.3 0 0)
(-45738.4 0 0)
(-49575.6 0 0)
(-41611.7 0 0)
(-29634.7 0 0)
(-8053 0 0)
(10599.1 -0 0)
(38682.7 -0 0)
(79212.3 -0 0)
(105282 -0 0)
(145652 -0 0)
(181280 -0 0)
(178749 -0 0)
(165679 -0 0)
(148371 -0 0)
(132029 -0 0)
(142363 -0 0)
(96734.5 -0 0)
(104269 -0 0)
(76253.9 -0 0)
(66215.7 -0 0)
(63407 -0 0)
(41757.4 -0 0)
(23850.8 -0 0)
(16953.9 -0 0)
(13173.5 -0 0)
(-6126.14 0 0)
(-17223.6 0 0)
(-37092.7 0 0)
(-41390.2 0 0)
(-58792 0 0)
(-68217.5 0 0)
(-86739.8 0 0)
(-94432.7 0 0)
(-112735 0 0)
(-120083 0 0)
(-118647 0 0)
(-111761 0 0)
(-106064 0 0)
(-109006 0 0)
(-102719 0 0)
(-109478 0 0)
(-106937 0 0)
(-101600 0 0)
(-103434 0 0)
(-100734 0 0)
(-88381.7 0 0)
(-88182.4 0 0)
(-77550.7 0 0)
(-84712.2 0 0)
(-80802.5 0 0)
(-64008.1 0 0)
(-74234.6 0 0)
(-67409 0 0)
(-63436.3 0 0)
(-60211.9 0 0)
(-66567.9 0 0)
(-58789.7 0 0)
(-62920.7 0 0)
(-62664.6 0 0)
(-51085.8 0 0)
(-51027.5 0 0)
(-42511.2 0 0)
(-30282.2 0 0)
(-35761.2 0 0)
(-51933.7 0 0)
(-44447.7 0 0)
(-24480.3 0 0)
(-39353.5 0 0)
(-26371.5 0 0)
(-38740.9 0 0)
(-34612.4 0 0)
(-39022.1 0 0)
(-58290.9 0 0)
(-55900.4 0 0)
(-46644.3 0 0)
(-57110.7 0 0)
(-52662.5 0 0)
(-32181.5 0 0)
(-36230.6 0 0)
(-25048.2 0 0)
(-17504.7 0 0)
(-23811.1 0 0)
(-26443.5 0 0)
(-37600 0 0)
(-34054.5 0 0)
(-6021.93 0 0)
(-7892.67 0 0)
(14455.3 -0 0)
(13446.8 -0 0)
(5860.16 -0 0)
(11307.4 -0 0)
(7344.87 -0 0)
(1788.46 -0 0)
(-9051.17 0 0)
(-17774 0 0)
(-19807.9 0 0)
(-16934.7 0 0)
(-21686.2 0 0)
(-33343.5 0 0)
(-31151.8 0 0)
(-45414.6 0 0)
(-37056.1 0 0)
(-27594.1 0 0)
(-19798.9 0 0)
(6772.23 -0 0)
(24122.5 -0 0)
(60538.7 -0 0)
(94380.8 -0 0)
(131889 -0 0)
(160119 -0 0)
(190891 -0 0)
(190135 -0 0)
(172578 -0 0)
(143725 -0 0)
(149054 -0 0)
(129738 -0 0)
(95961.3 -0 0)
(78897.8 -0 0)
(82137.3 -0 0)
(69344 -0 0)
(52331.2 -0 0)
(57339.6 -0 0)
(42544.2 -0 0)
(38284.3 -0 0)
(20848.3 -0 0)
(9052.17 -0 0)
(-13835.4 0 0)
(-26206.1 0 0)
(-31037.9 0 0)
(-37555.2 0 0)
(-54713.8 0 0)
(-67408.1 0 0)
(-72119.2 0 0)
(-93056.3 0 0)
(-107263 0 0)
(-106105 0 0)
(-102511 0 0)
(-103593 0 0)
(-94941.6 0 0)
(-92940.3 0 0)
(-94691.3 0 0)
(-99650 0 0)
(-95388.6 0 0)
(-85379.6 0 0)
(-83066.9 0 0)
(-86530.9 0 0)
(-75417 0 0)
(-69962.9 0 0)
(-80210.9 0 0)
(-75283 0 0)
(-61054.2 0 0)
(-74471.6 0 0)
(-69381.4 0 0)
(-63939.9 0 0)
(-57181.3 0 0)
(-62495.5 0 0)
(-73131.8 0 0)
(-73063.8 0 0)
(-53968.1 0 0)
(-57153.1 0 0)
(-45864.1 0 0)
(-36436.8 0 0)
(-31370.3 0 0)
(-44636.6 0 0)
(-33196 0 0)
(-43583.6 0 0)
(-31931.7 0 0)
(-44515.9 0 0)
(-35232.3 0 0)
(-25005.5 0 0)
(-38801.9 0 0)
(-34090.8 0 0)
(-47827.4 0 0)
(-41420.6 0 0)
(-49044.2 0 0)
(-43896 0 0)
(-45920.2 0 0)
(-35925.2 0 0)
(-19056.6 0 0)
(-19768.6 0 0)
(-26646.9 0 0)
(-30479.2 0 0)
(-34974.2 0 0)
(-42286.1 0 0)
(-30794.5 0 0)
(-8428.22 0 0)
(-3607.69 0 0)
(16928.2 -0 0)
(17855.9 -0 0)
(13108.5 -0 0)
(2803.17 -0 0)
(-460.314 0 0)
(-4522.74 0 0)
(-7088.08 0 0)
(-9677.34 0 0)
(-10109.8 0 0)
(-22382 0 0)
(-23497.9 0 0)
(-18880.4 0 0)
(-30419.5 0 0)
(-30205.9 0 0)
(-32432.2 0 0)
(-16836.2 0 0)
(-10003.1 0 0)
(14989.6 -0 0)
(43069.9 -0 0)
(72736 -0 0)
(117846 -0 0)
(146239 -0 0)
(179608 -0 0)
(195178 -0 0)
(199316 -0 0)
(167326 -0 0)
(148532 -0 0)
(130633 -0 0)
(94032.3 -0 0)
(60128.5 -0 0)
(33103 -0 0)
(33662.9 -0 0)
(43010.2 -0 0)
(40630 -0 0)
(47612 -0 0)
(46061.7 -0 0)
(41366 -0 0)
(26849.1 -0 0)
(7562.9 -0 0)
(-1155.5 0 0)
(-9745.03 0 0)
(-14628.2 0 0)
(-25206.5 0 0)
(-37040.9 0 0)
(-42331.7 0 0)
(-57790.2 0 0)
(-76301.5 0 0)
(-84226.3 0 0)
(-91663.2 0 0)
(-100981 0 0)
(-93157.2 0 0)
(-88052.1 0 0)
(-92862.2 0 0)
(-88837.6 0 0)
(-88882.7 0 0)
(-87483.6 0 0)
(-83240.9 0 0)
(-88929.8 0 0)
(-75345.5 0 0)
(-77139.1 0 0)
(-68006.3 0 0)
(-73109.6 0 0)
(-62792.1 0 0)
(-61100.1 0 0)
(-72289.3 0 0)
(-82372.6 0 0)
(-73558.2 0 0)
(-56953.3 0 0)
(-61338.2 0 0)
(-78851.6 0 0)
(-72024.7 0 0)
(-46674.6 0 0)
(-50775.9 0 0)
(-36486.9 0 0)
(-45588.5 0 0)
(-43337.7 0 0)
(-28373.9 0 0)
(-40735.2 0 0)
(-29227.5 0 0)
(-33946 0 0)
(-24187.6 0 0)
(-15985.2 0 0)
(-32077.3 0 0)
(-24282.2 0 0)
(-36347.9 0 0)
(-27321.1 0 0)
(-38606.4 0 0)
(-38584.4 0 0)
(-45491.5 0 0)
(-31956.2 0 0)
(-31859 0 0)
(-17022.9 0 0)
(-28020.9 0 0)
(-20673.1 0 0)
(-33096.5 0 0)
(-35464.4 0 0)
(-37143.6 0 0)
(-20210.8 0 0)
(13228.7 -0 0)
(-4979.3 0 0)
(16855 -0 0)
(18090.5 -0 0)
(12133.7 -0 0)
(21161.9 -0 0)
(18956.2 -0 0)
(12591.8 -0 0)
(664.901 -0 0)
(-14154.9 0 0)
(-7773.58 0 0)
(428.291 -0 0)
(-1855.32 0 0)
(-8643.36 0 0)
(-11908.2 0 0)
(-30588.2 0 0)
(-17473.5 0 0)
(-11478 0 0)
(5468.88 -0 0)
(25125.2 -0 0)
(58480.9 -0 0)
(86366.2 -0 0)
(137516 -0 0)
(160747 -0 0)
(191664 -0 0)
(190714 -0 0)
(192215 -0 0)
(167604 -0 0)
(129385 -0 0)
(99623.1 -0 0)
(47002.4 -0 0)
(-21683.9 0 0)
(-56745.2 0 0)
(-36026.6 0 0)
(-20744.2 0 0)
(13103.8 -0 0)
(26295.8 -0 0)
(35781.7 -0 0)
(24527 -0 0)
(10151 -0 0)
(11902.9 -0 0)
(12667.4 -0 0)
(2979.73 -0 0)
(-9430.5 0 0)
(-10146.4 0 0)
(-14388.2 0 0)
(-15232.6 0 0)
(-45042.5 0 0)
(-59344.5 0 0)
(-77704.2 0 0)
(-85397.2 0 0)
(-88756.9 0 0)
(-90742.8 0 0)
(-85377.2 0 0)
(-79751.2 0 0)
(-88053.1 0 0)
(-86985.2 0 0)
(-72132.8 0 0)
(-83295.1 0 0)
(-73736.3 0 0)
(-76847.7 0 0)
(-62259.9 0 0)
(-71820.2 0 0)
(-62982.2 0 0)
(-75319.2 0 0)
(-74348.8 0 0)
(-86255.8 0 0)
(-85797.1 0 0)
(-84909.1 0 0)
(-75918.7 0 0)
(-64412.9 0 0)
(-68830.2 0 0)
(-55360.3 0 0)
(-46365.6 0 0)
(-34569.5 0 0)
(-34288.4 0 0)
(-27956.6 0 0)
(-38689.5 0 0)
(-24572.7 0 0)
(-38680.9 0 0)
(-24527.9 0 0)
(-4046.95 0 0)
(-14257.9 0 0)
(-13861.8 0 0)
(-28634.3 0 0)
(-16986.2 0 0)
(-29141.1 0 0)
(-25741.5 0 0)
(-23975.2 0 0)
(-38614.8 0 0)
(-37167.8 0 0)
(-34503.3 0 0)
(-17914.7 0 0)
(-26053.3 0 0)
(-15595.7 0 0)
(-20738.1 0 0)
(-10583.2 0 0)
(-13083.3 0 0)
(-23360.5 0 0)
(-5960.02 0 0)
(18478.2 -0 0)
(-5796.06 0 0)
(11234.5 -0 0)
(14686.5 -0 0)
(26829.9 -0 0)
(23073.9 -0 0)
(12224.4 -0 0)
(18059.9 -0 0)
(5451.74 -0 0)
(-10648.2 0 0)
(-2688.84 0 0)
(8103.75 -0 0)
(934.017 -0 0)
(-14576.1 0 0)
(-3023 0 0)
(-16175.7 0 0)
(-1939.21 0 0)
(3904.86 -0 0)
(14543.1 -0 0)
(44671.1 -0 0)
(71613.8 -0 0)
(111300 -0 0)
(148082 -0 0)
(178506 -0 0)
(193518 -0 0)
(189556 -0 0)
(172134 -0 0)
(142557 -0 0)
(102870 -0 0)
(44772.5 -0 0)
(-46609.9 0 0)
(-168320 0 0)
(-204343 0 0)
(-209404 0 0)
(-151429 0 0)
(-78025.4 0 0)
(-28915.9 0 0)
(-4166.49 0 0)
(-1831.12 0 0)
(9881.28 -0 0)
(18572.5 -0 0)
(20690.6 -0 0)
(5516.13 -0 0)
(-1141.91 0 0)
(3881.94 -0 0)
(6131.05 -0 0)
(3647.03 -0 0)
(-21317.2 0 0)
(-41446.5 0 0)
(-58806.9 0 0)
(-71499 0 0)
(-79184.6 0 0)
(-81263 0 0)
(-70206.9 0 0)
(-72591 0 0)
(-68137.6 0 0)
(-71862.4 0 0)
(-58213.7 0 0)
(-68757.2 0 0)
(-81072.6 0 0)
(-69551.8 0 0)
(-52127.2 0 0)
(-57984.9 0 0)
(-64575.8 0 0)
(-60062.7 0 0)
(-78016.9 0 0)
(-72806.9 0 0)
(-60076.4 0 0)
(-72845.5 0 0)
(-83404.5 0 0)
(-73689.9 0 0)
(-50763.5 0 0)
(-47089.9 0 0)
(-32326 0 0)
(-28326 0 0)
(-14890.8 0 0)
(-23212.4 0 0)
(-16952.2 0 0)
(-19459.4 0 0)
(-30357.9 0 0)
(-14037.8 0 0)
(-21392.5 0 0)
(-12009.8 0 0)
(-29186.5 0 0)
(-21955.9 0 0)
(-10728.4 0 0)
(-18372 0 0)
(-14418.4 0 0)
(-22149.3 0 0)
(-22483.1 0 0)
(-12523.2 0 0)
(-25119.7 0 0)
(-9795.22 0 0)
(-7484.43 0 0)
(-16314.7 0 0)
(-3797.12 0 0)
(-6826.29 0 0)
(-1909.41 0 0)
(-20049.4 0 0)
(-25003.1 0 0)
(7217.28 -0 0)
(-4471.07 0 0)
(8433.32 -0 0)
(13173.2 -0 0)
(26063.4 -0 0)
(17411.2 -0 0)
(28790 -0 0)
(21899.6 -0 0)
(12442.3 -0 0)
(-592.904 0 0)
(11269.3 -0 0)
(202.728 -0 0)
(9519.55 -0 0)
(-502.991 0 0)
(-2008.2 0 0)
(-170.064 0 0)
(14416.1 -0 0)
(20095.3 -0 0)
(34355.6 -0 0)
(56257.5 -0 0)
(92334.8 -0 0)
(131160 -0 0)
(158316 -0 0)
(186400 -0 0)
(202783 -0 0)
(181876 -0 0)
(150212 -0 0)
(109984 -0 0)
(60687.9 -0 0)
(6181.23 -0 0)
(-70296 0 0)
(-197773 0 0)
(-241254 0 0)
(-222431 0 0)
(-160521 0 0)
(-116764 0 0)
(-86858.6 0 0)
(-57720.8 0 0)
(-23507.7 0 0)
(3184.16 -0 0)
(11250.6 -0 0)
(11099.3 -0 0)
(10907.2 -0 0)
(15131 -0 0)
(19196.5 -0 0)
(21808.5 -0 0)
(16012.9 -0 0)
(3176.35 -0 0)
(-26051.4 0 0)
(-45506.8 0 0)
(-53562.9 0 0)
(-64685.3 0 0)
(-64936.2 0 0)
(-69151.5 0 0)
(-56399.2 0 0)
(-65863.4 0 0)
(-58179.4 0 0)
(-60121.9 0 0)
(-76652 0 0)
(-71944.2 0 0)
(-55907.8 0 0)
(-56493.2 0 0)
(-65795 0 0)
(-54343 0 0)
(-47700.1 0 0)
(-58854 0 0)
(-54340.6 0 0)
(-64045 0 0)
(-51238.9 0 0)
(-62920.1 0 0)
(-68786 0 0)
(-42833.8 0 0)
(-22455.2 0 0)
(-11127.7 0 0)
(-8253.15 0 0)
(-17348.4 0 0)
(-19528.2 0 0)
(-39807.3 0 0)
(-30708.7 0 0)
(-13433.2 0 0)
(-23733.9 0 0)
(-8531.15 0 0)
(-19573.7 0 0)
(-12555.4 0 0)
(-6819.96 0 0)
(-18922.3 0 0)
(-6068.05 0 0)
(-15364.2 0 0)
(-16406 0 0)
(-10821.2 0 0)
(-3101.34 0 0)
(-12814.2 0 0)
(-28703.5 0 0)
(-14283.6 0 0)
(4727.11 -0 0)
(-2734.24 0 0)
(8547.86 -0 0)
(-670.816 0 0)