/*--------------------------------*- C++ -*----------------------------------*\
| =========                 |                                                 |
| \\      /  F ield         | foam-extend: Open Source CFD                    |
|  \\    /   O peration     | Version:     5.0                                |
|   \\  /    A nd           | Web:         http://www.foam-extend.org         |
|    \\/     M anipulation  |                                                 |
\*---------------------------------------------------------------------------*/
FoamFile
{
    version     2.0;
    format      ascii;
    class       volScalarField;
    location    "0.07";
    object      p;
}
// * * * * * * * * * * * * * * * * * * * * * * * * * * * * * * * * * * * * * //

dimensions      [1 -1 -2 0 0 0 0];

internalField   nonuniform List<scalar> 
4000
(
-768997
-771476
-772312
-771852
-771575
-771422
-771024
-769512
-766591
-763140
-759341
-752635
-741618
-728433
-713670
-700809
-691187
-679673
-665802
-644740
-617271
-581088
-550205
-528867
-503994
-466578
-430800
-405931
-362721
-315361
-261187
-183037
-101610
-41991.4
4343.53
40963.1
59642.4
74426.2
98740.8
129453
160145
188323
204074
217614
216320
205344
183219
154359
142977
133539
131737
139044
144504
154154
158037
157076
156299
154652
151034
146333
141660
136853
130796
125417
123576
121215
116916
112214
109658
108101
105673
104848
105094
104505
102981
100319
96339.5
91480.4
86889.5
83535.9
81108.9
79259.2
76984.8
73993.7
70756.9
65837.5
59517
54188.1
48761
41950.7
34609.5
28738.1
25086.3
21310.9
19664
19803.7
18482.2
15278.6
10180.3
4073.67
-768997
-771543
-772302
-771808
-771509
-771320
-770864
-769283
-766234
-762679
-758805
-752121
-741182
-728259
-713312
-700727
-691676
-679942
-665526
-645868
-618898
-582310
-550586
-528866
-503618
-465772
-431168
-403594
-363812
-317397
-261504
-182025
-100862
-42310.2
3413.45
38303
55553.6
71912.5
96845.4
128281
158995
184987
203784
219383
216167
206864
181313
155075
143506
133300
132603
139470
146049
154635
158069
156519
155826
154592
150443
145877
141387
136628
130599
125107
123510
121141
116918
112160
109603
108088
105636
104736
104928
104317
102817
100186
96257.7
91395.3
86797.9
83464.4
81073.5
79277.4
76884.5
73855.8
70619.4
65732.8
59435.3
54096.9
48663.4
41931.6
34595.6
28728.5
25175
21356.3
19637
19846.1
18619.5
15464.5
10219.7
3897.86
-768887
-771677
-772361
-771793
-771472
-771307
-770769
-769081
-765947
-762368
-758457
-751653
-740812
-727998
-712847
-700488
-691763
-680602
-666196
-645814
-620247
-584699
-552184
-530870
-502327
-464541
-433159
-404905
-367235
-320515
-263677
-182201
-99854.8
-40919.4
3497.12
35876.4
53700.6
69618.7
94744.6
127200
158418
185841
203244
217406
218384
208459
180439
156634
144847
133527
133898
140472
148012
156223
158400
156246
155524
154795
149946
145345
141183
136481
130470
125040
123196
120990
117013
112089
109485
107964
105633
104679
104817
104264
102786
100033
96122
91252.8
86716.8
83382.8
81006.2
79391.4
76807.3
73807.5
70529.8
65611.2
59435.5
54011.4
48602.4
41896.4
34472.2
28563.2
25150.3
21405.3
19617.6
19912.7
18826.8
15802.3
10260.9
3542.59
-768708
-771872
-772497
-771784
-771507
-771334
-770766
-768957
-765712
-762074
-758178
-751309
-740566
-727671
-712533
-700362
-691991
-681446
-667219
-647187
-621642
-587111
-554698
-531680
-500371
-462698
-433910
-406795
-370686
-324371
-267855
-182996
-97204.4
-39104.1
3211.35
33820.9
51984.4
67419.1
92668.4
126198
158524
185307
203447
216979
219956
208553
182418
158459
145309
135778
135933
141872
150252
157556
159092
156611
155895
154745
149654
144863
141031
136506
130370
124911
122999
120917
116770
112250
109428
107848
105639
104672
104938
104278
102736
100023
96055.3
91074.8
86563.2
83270.4
80981.6
79432.9
76876.9
73818
70483.3
65521.4
59482.8
54014.5
48444
41752.7
34398.2
28401.1
24917.3
21438
19744.2
19966.6
19070.2
16170.1
10244.3
3057.57
-768504
-772133
-772651
-771877
-771484
-771413
-770863
-768919
-765491
-761805
-757981
-751035
-740402
-727271
-712563
-700772
-692428
-682391
-668205
-648844
-623338
-590153
-557577
-531729
-498223
-461786
-433487
-408409
-374537
-329330
-273147
-184085
-93588.8
-37520.2
3498.93
31818
48510.2
66066.4
92978
125869
157460
184721
204032
217152
220507
209362
184695
160278
146291
138570
140399
143463
152877
159498
160542
158139
155833
154464
149859
145364
140781
136471
130261
124905
123292
120608
116161
112377
109622
107869
105714
104842
105034
104384
102872
100023
95958.9
90926.8
86368.1
83107.1
80881.9
79561.1
77143.8
73869.2
70366.6
65409.2
59440
54088.1
48445.3
41522.1
34114.3
28211
24605.7
21408.3
19882.2
19969.7
19411.7
16622
10184.2
2373.25
-768270
-772467
-772828
-771859
-771567
-771513
-771111
-768946
-765237
-761656
-757831
-750963
-740420
-727086
-712803
-700968
-692955
-683559
-669579
-650559
-625096
-593330
-559945
-531121
-495836
-460252
-433348
-410914
-378675
-334827
-278802
-185478
-90440.8
-34672.6
4331.84
29500.6
45402.9
65217.9
92698.6
123770
157254
185639
204397
216841
220334
211628
187322
161367
146963
140624
143546
145939
156044
162402
161872
159286
155899
155081
150569
146392
141262
136134
130319
125384
123296
120033
115926
112523
109801
108016
105838
105061
105220
104478
103125
100105
95843.6
90712.8
86131.3
82893.1
80834.9
79924.3
77310.6
73773.7
70411.3
65250.6
59360
54092.4
48528.7
41311.5
33687.2
27928.2
24173.1
21263.1
19974.6
20070.4
19814.5
17062.3
10192.2
1802.16
-768003
-772852
-773010
-771898
-771664
-771699
-771387
-769083
-765201
-761651
-757726
-751139
-740761
-727138
-712885
-701675
-693572
-684371
-671098
-652988
-626817
-594268
-560665
-529849
-494175
-458665
-433695
-414184
-384040
-340922
-284178
-189021
-89106.9
-33261.6
4119.85
27015.8
42633.2
64031.1
92347.5
123802
157594
186260
204038
215947
220089
212450
188676
161944
147203
142046
146144
149089
158716
165368
163417
160577
156994
155234
151532
147451
141965
135971
130534
125713
122937
119520
115868
113009
110094
108310
106153
105102
105427
104734
103260
100210
95700.4
90449.6
85827.1
82649.3
80770.8
80200.8
77558.5
73764.7
70269.3
65201
59535.1
53821.6
48412.2
41141.5
33288.7
27469.8
23503.6
21295.8
19992.6
20282.8
20137.7
17421.8
9843.81
1157.19
-767672
-773294
-773221
-771949
-771819
-771894
-771662
-769318
-765315
-761758
-757767
-751441
-741161
-727353
-713002
-702376
-694627
-685431
-672771
-655289
-628566
-595123
-560383
-527439
-492410
-456945
-435161
-419174
-390627
-349845
-290338
-194814
-90249.8
-33782.6
2564.94
25158.6
41037.1
62575.3
91718.5
125019
158721
185862
204222
215009
218262
213167
190012
161610
147010
142742
148199
151996
161292
168336
165349
161584
158179
155740
152550
148523
142305
136330
130960
126098
122802
119192
116155
113169
110378
108639
106570
105287
105506
104905
103495
100305
95527.4
90112.5
85563.3
82416.2
80754.6
80382.5
77689.6
73841.7
70209.8
65139.4
59771.5
53903.2
48089.2
40978
32891.6
26940.8
23026.4
20914.2
19994.7
20489
20270.5
17707.4
9306.06
617.004
-767320
-773746
-773414
-772053
-772033
-772171
-771905
-769460
-765442
-761976
-757924
-751812
-741906
-727648
-713109
-703179
-695959
-686809
-674710
-657579
-629989
-595596
-560245
-524788
-489992
-457093
-438937
-426604
-398617
-358512
-296626
-200814
-94953.6
-36712.1
662.537
23924.1
40051.9
60926.5
91720.4
126703
159783
186031
203146
211960
216492
213565
191211
161570
146470
144015
148848
154215
163897
170464
167244
163206
159349
156767
153448
149128
143273
137039
131518
126721
122811
118894
116450
113415
110674
109008
106985
105656
105440
105142
103843
100416
95324.7
89775
85333.3
82205.8
80855.7
80416.1
77752.8
73969.9
69996.1
65227.1
60171.8
54145.5
47747.1
40439.8
32702.2
26761.7
22418.3
20439.5
20064.6
20504
20569.7
17979.9
8528.16
-65.052
-767053
-774135
-773541
-772172
-772371
-772509
-772151
-769573
-765613
-762299
-758246
-752186
-742574
-728186
-713577
-704135
-697455
-688287
-676626
-659425
-630823
-595033
-558549
-523102
-488237
-460481
-445888
-433180
-406222
-366495
-304658
-205689
-99910.8
-39393.8
-489.37
22614.7
38756.5
59684.5
91465.4
127358
160256
184813
200386
209587
214846
213526
192186
161781
145289
145158
149493
155740
166500
171846
169675
165195
160611
157854
154428
149947
144330
137777
132176
127492
123042
118911
116499
113759
110937
109186
107373
106257
105454
105276
104353
100605
95187.8
89490.3
85106.1
82022
80777.4
80476.2
77580.7
73820.1
70106
65503
60582.3
54612.1
47545.5
39682.8
32504.4
26628.9
22039.2
20135.4
19967.8
20535.4
20968.8
18171.4
7580.37
-688.175
-766857
-774454
-773619
-772294
-772786
-772935
-772403
-769696
-765786
-762648
-758663
-752786
-743256
-728813
-714389
-705623
-698917
-690065
-678682
-660349
-630052
-593788
-557157
-521987
-489373
-465300
-451616
-438632
-415092
-375464
-313308
-210989
-105736
-41544.7
-1074.5
21453.9
37442.9
58810
91113.3
126907
159509
183209
198743
207608
212831
213225
192810
162290
143442
145406
150842
157599
168637
173330
172009
167149
161939
158964
155502
150883
145410
138531
132922
128318
123499
119194
116631
114111
111261
109343
107756
106607
105733
105578
104768
100886
95157.1
89272.4
84947.9
81804.8
80462
80240.3
77267.9
73692.4
70433.7
66032.3
61209.1
54896.7
47576.3
39395.9
32320.6
26242.1
21680
19988.5
19727.9
20692.9
21285.4
18338.7
6779.97
-1279.55
-766665
-774710
-773676
-772467
-773210
-773359
-772698
-769859
-766023
-763045
-759218
-753595
-744108
-729892
-715138
-706873
-700784
-692216
-680452
-660896
-628672
-591426
-557513
-522790
-491865
-469229
-456441
-444528
-424119
-386678
-321949
-216073
-110318
-42061.9
-843.143
21063.4
36735.5
57801.8
89657.7
126097
159037
182624
197462
205364
211259
212101
193327
162960
142058
144940
152041
159128
169915
175535
174352
169093
163886
159621
156447
152037
146598
139338
133679
129198
123869
119529
116863
114604
111650
109508
108165
106895
105938
105990
105216
101237
95219.2
89139.3
84780.5
81515.6
79998.5
79637.7
76818.9
73539.7
70785.2
66612.5
61916.9
55452
47557.3
39331.1
32430.6
25863.1
21179.3
19748.6
19657.7
20884.6
21569.1
18429.4
6132.36
-1952.8
-766454
-774871
-773766
-772735
-773676
-773794
-772986
-769996
-766203
-763551
-760045
-754586
-745166
-731271
-716138
-708121
-702372
-694100
-682146
-661434
-627966
-590982
-558004
-524125
-494397
-473439
-460860
-450808
-432930
-399444
-330477
-220070
-113923
-41771.4
507.867
20686
35460.9
56537.2
88372.8
125059
158793
182584
195603
203264
209468
210799
194409
163394
141217
144412
153296
160448
171179
177945
176693
171298
165335
160664
157308
153350
147879
140244
134552
130065
124168
119837
117212
115061
111980
109711
108503
107240
106158
106371
105402
101667
95369.6
89054.1
84604.9
81141.3
79488
78894.1
76128.4
73027.8
70726.6
67525.1
62813
55816.8
47912.4
39689.3
32489.2
25553.5
20885.8
19545.1
19692.6
21095.7
21855.9
18516.1
5848.75
-2305.85
-766173
-774925
-773889
-773072
-774092
-774212
-773293
-770141
-766425
-764251
-761190
-755680
-746439
-732300
-716949
-709906
-704144
-695924
-683217
-661158
-626813
-592632
-558705
-525353
-496479
-477533
-465107
-456854
-442789
-412925
-339897
-224999
-117228
-40683.5
1844.27
19828.1
34338
55392.1
87103
123956
158087
182088
194469
201285
207638
209696
195301
164862
141333
143661
153531
162163
172651
180425
178989
172773
167001
161964
158183
154772
148701
141419
135631
131045
124697
120209
117891
115367
112222
109797
108630
107627
106262
106299
105737
102275
95675
89010.5
84420.8
80850.1
78668
77806
75193.2
72441.3
70949.4
68724.8
63573.8
56547
48500.6
39937.6
32581.4
25372.6
20778.8
19534.9
19797.7
21343.5
22197.2
18654.9
5865.51
-2241.84
-765921
-774869
-774032
-773430
-774563
-774748
-773605
-770346
-766795
-765125
-762485
-756691
-747671
-733720
-718293
-711677
-706177
-697915
-684209
-660752
-626703
-593364
-559672
-525984
-498324
-481429
-469200
-463035
-452880
-426070
-350587
-229922
-120090
-39044.1
3755.77
19476.3
33307.6
54358.1
86077.9
123120
157659
182525
193796
199590
205913
209032
196167
167141
141966
142621
153491
163719
174680
182422
180487
174459
168850
163109
159638
155825
149453
142571
136722
132135
125369
120531
118385
115952
112431
109492
108956
107865
106262
106081
105899
102925
96218.9
88996
84136.6
80444.7
77714
76555.9
74118.2
71894.7
71332.9
69550.2
64578.1
57431.5
48955.1
40602.5
32873.8
25465.5
20786.1
19660
19980.3
21601.3
22391.8
18704.8
6187.85
-2024.88
-765723
-774740
-774171
-773769
-775010
-775206
-773898
-770564
-767333
-766180
-763870
-758183
-749371
-735669
-719757
-713355
-708463
-699689
-684925
-659906
-628532
-593405
-560261
-526962
-499574
-484669
-473166
-468552
-462715
-438708
-360970
-234887
-123196
-37010.1
6506.14
19401.7
31851.6
53153.5
85042
122615
157963
183195
193005
198074
204876
208670
197125
169864
143079
141593
153523
165333
176343
184294
182211
175645
170624
164844
160827
156666
150381
143709
138149
132934
125930
121168
118912
116239
112506
108998
108800
108332
106127
105727
106026
103336
97009.6
89291.2
83840.8
79655.2
76637.8
75131.9
72849.2
71285.2
71697.1
70405.1
65562.3
57992.4
49715.2
41423.5
33093.2
25931.4
21248.6
19744.8
20088.8
21659.5
22423.2
18903.9
6551.2
-1838.14
-765476
-774612
-774302
-774105
-775472
-775719
-774203
-770805
-767945
-767337
-765333
-759396
-751043
-737894
-721505
-715471
-710508
-701036
-685127
-659538
-630033
-593932
-560250
-528516
-502559
-486967
-477468
-472122
-470670
-448872
-368730
-240613
-126360
-34483.3
9696.17
18482.6
29397.7
51696
84009.2
122365
158697
183726
192419
197051
204159
207973
198175
173125
144552
140921
154097
166409
177625
186102
184179
177210
171876
166357
162352
157307
151208
145124
139419
133526
126651
121852
119308
116450
112153
108705
108800
108548
105683
105250
105715
103704
98207.9
90022.1
83633.3
78811.1
75435.4
73683.1
71318.3
70433.6
72008.4
71272.9
66373.8
58579.3
50534.1
42248.1
33700.5
26306.4
21764.4
19958.9
20006.1
21476.9
22241.1
19094.9
7159.02
-1515.75
-765184
-774567
-774393
-774398
-776016
-776198
-774440
-771111
-768666
-768229
-766460
-761119
-753158
-740479
-723451
-717232
-712025
-701826
-684752
-660565
-630551
-594112
-560289
-529850
-505738
-489260
-481053
-474631
-475580
-455524
-374447
-244436
-129935
-33613
13753.7
18950.4
26326.1
49455.3
83466.1
122778
159835
184724
192165
195966
203358
206840
199135
176125
146589
141150
154621
167151
179386
187709
185501
179308
173602
167784
163528
157939
152018
146485
140618
134150
127201
122489
119660
116362
111987
108679
108568
108044
105239
104655
105254
104090
99310.7
90905.5
83469.2
78014.2
74383.3
72160.2
69814.5
69560.6
72186
71905.6
66906.2
59148.5
51372.6
43065.4
34491.5
26926.9
22184.4
20023.7
19792.6
21118.4
21835.2
19451.1
8232.02
-701.284
-764910
-774599
-774476
-774831
-776498
-776523
-774639
-771451
-769335
-769018
-767786
-763293
-755425
-742555
-725099
-718777
-713069
-701930
-684574
-661416
-630899
-594514
-560117
-530486
-508605
-493500
-483474
-476648
-475298
-455572
-376753
-250029
-135097
-38138.7
10424.7
16460.2
24120.3
48624.9
83162.2
123216
161521
186000
191932
195048
202692
206038
200263
178540
149880
141522
155150
168381
180952
189359
187031
181134
175299
169112
164462
158658
152863
147732
141747
134765
127749
123098
119756
116667
111825
108545
108279
107368
104631
103793
104733
104384
100305
91638.8
83384.5
77223
73241.3
70635.1
68181.7
68847.5
72003.5
72234.8
67237.8
59678.2
52138.2
43875.5
35438.7
27820.6
22750.6
20004
19479.8
20713.2
21529.4
20103
9797.14
467.586
-764640
-774770
-774610
-775192
-776970
-777107
-774903
-771776
-769935
-769697
-769107
-765417
-757892
-744885
-726515
-719429
-713547
-701540
-684928
-661841
-630779
-595111
-560202
-530233
-510584
-499057
-485018
-476995
-474118
-454629
-376153
-257514
-143486
-47848
744.961
10949.7
21948.5
47941.1
82363.4
123769
163872
187607
191840
194223
201947
205473
202207
179639
154028
142918
155680
169271
182519
190923
188690
182667
176308
170592
165728
159014
153485
149197
142909
135471
128327
122999
119986
117140
111830
108001
107847
107060
103956
102809
104021
104686
101576
92667.6
83396.6
76411.8
72052.2
69127.6
66626.3
68188.2
71738
72249.8
67331.7
60106.2
52758
44783.5
36475.3
28627.6
23378.4
20077.4
19189.7
20288.7
21066.4
20847.8
12111.3
1863.37
-764389
-775039
-774797
-775495
-777653
-777746
-775093
-771961
-770368
-770359
-770693
-768116
-760906
-748265
-729346
-720170
-713103
-701344
-684771
-662124
-631721
-595940
-560401
-528964
-513969
-503376
-485712
-476816
-471939
-451126
-373885
-263087
-152476
-58575.2
-9513.72
4809.31
19856
47068.8
81626.7
125156
167517
189808
191678
193142
201124
204930
204412
180385
158401
145785
156244
170117
184072
192445
190379
183964
177705
171980
166534
159331
154604
150673
143704
136377
128696
122712
120161
117550
111827
107407
107477
106574
103033
101840
103124
104870
103222
94052.4
83608.5
75753.2
70702.6
67745.8
65602.5
67774.1
71463.3
72009.5
67228.4
60403
53373.9
45619.2
37444.7
29416.7
23697.7
20250.6
18965.6
19724.6
20393.2
21466
14447.5
3601.48
-764244
-775342
-775066
-775726
-778270
-778351
-775358
-772054
-770632
-771030
-772390
-771281
-764288
-751416
-731908
-721330
-712589
-701489
-684263
-662422
-632455
-596521
-560836
-528151
-518553
-507227
-486386
-475534
-467860
-443961
-368630
-261087
-152797
-64858.5
-18472.1
-1433.69
16981.9
46411.8
82550.2
128377
171263
192673
192214
191888
200272
204391
205570
183250
160767
149419
157319
171304
185881
194081
192088
185422
178827
173033
167528
160355
155600
151616
144481
137274
128931
122830
120071
117563
111780
107100
107539
106129
101727
100551
102164
104560
104227
95374.5
83975.6
75420.7
69428.3
66209.6
64847.9
67525.3
71296.5
71665.9
67058.7
60613.6
53977.1
46395.8
38410.9
30439.5
24333.8
20618
18679
19326.9
19560.9
21824.6
15709.1
5106.75
-764178
-775637
-775378
-775984
-778715
-778928
-775738
-772171
-770777
-771521
-773822
-773955
-767259
-754296
-734735
-722513
-712659
-701514
-683443
-662144
-633229
-596600
-559130
-530521
-522931
-508964
-487861
-474158
-465354
-439985
-363722
-256686
-148949
-65290.8
-22622.7
-5577.21
14753.7
46410.8
85079.7
132569
174946
196452
192572
190280
198786
203046
205385
186983
161772
153991
159131
172697
187673
195973
193817
187110
180242
174090
168350
161403
156359
152042
145387
138159
129200
123017
120230
117877
111366
106639
108066
106098
100279
98913.3
100938
104160
105007
96465.4
84247.1
75002.7
68197.6
64698.6
64152.4
67250.5
71054.2
71312.6
66849.3
60754.3
54554.8
47165.4
39453.8
31767
25650.5
21404.9
18446.9
19256.1
18652.8
22049.8
16311.6
6521.95
-764142
-775901
-775729
-776224
-779078
-779462
-776174
-772498
-771042
-771810
-774588
-775692
-769511
-756821
-738053
-723477
-713193
-701675
-682971
-661326
-633712
-597607
-555685
-533588
-527602
-509273
-488277
-472923
-463610
-436505
-359331
-251508
-146808
-66720.3
-24782.7
-6703.59
14174.5
47455.4
89265.9
138545
179032
197570
191733
188470
196796
201371
204213
188865
164377
157394
161436
174585
189671
197693
195515
188756
181371
175061
168949
162108
157035
152393
146448
139112
129502
122814
120476
118587
111296
106010
108576
106272
98818
97358
99486.3
104062
106065
98001.2
84528.1
74501.9
66415.6
63171.9
63585.6
67002.9
70766.4
70919.7
66588
60808.3
55054.3
47967.9
40488.2
33523.7
27564.6
22484.2
18195.7
19099
18220.6
22412.7
16943.5
7766.79
-764149
-776133
-776089
-776422
-779361
-779974
-776687
-773000
-771448
-772071
-774628
-776620
-771322
-759301
-740760
-723999
-713925
-701760
-682870
-661325
-633470
-597457
-553309
-535700
-529840
-510134
-487634
-471663
-462292
-432787
-355434
-249643
-147816
-69824.7
-27082.5
-6524.55
14647.6
47781.1
92081.9
141562
179179
195780
190330
187012
194956
199785
202852
190349
168457
159146
164228
176955
192004
199041
197064
190163
182228
175780
169488
162754
157605
152892
147567
140063
129473
122614
120933
119329
111453
105533
108962
106337
97554
95995.8
98011.8
104427
107587
99870.8
85211.7
74025.5
64708.2
61544.8
63121.8
66850.8
70419.7
70480.2
66339.6
60746.4
55377.1
48644
41458.3
35296.6
29540.5
23689.9
18482.5
18926.5
18091.5
22894
17656.8
8613.95
-764286
-776277
-776395
-776570
-779503
-780455
-777389
-773475
-771768
-772280
-774528
-776977
-772700
-761471
-743488
-725042
-714766
-701701
-682384
-661038
-633875
-597073
-551160
-537378
-530200
-510776
-486491
-470099
-460210
-428692
-351930
-249197
-150959
-74313.4
-29895.7
-8499.82
14055.1
48831.6
95320.2
144732
179986
195540
189620
185837
193200
198212
200904
190832
172308
162416
167342
179970
194214
200062
198208
191249
183105
176603
169883
163325
158101
153481
148771
140834
129420
122603
121480
120041
111600
105301
109412
106196
96548.4
94684.7
96779.4
104908
108807
101754
86341.8
73370.3
63273.9
60116.6
62690
66793.3
70070.7
70133.6
66020
60559.5
55601.9
49075.4
42334.4
36672.8
30882.5
24724.3
19177.4
18661
18474.9
23490.5
18377.6
8991.46
-764564
-776271
-776688
-776659
-779531
-780841
-778163
-774081
-772074
-772585
-774624
-777042
-773723
-763398
-745824
-726223
-715444
-701648
-681587
-659895
-634153
-596145
-550120
-537243
-530331
-511506
-485368
-468103
-457074
-424311
-348626
-249165
-154710
-80615.6
-34758.9
-9216.76
15565.5
50660.2
99393.3
148990
181359
195303
188808
184436
191378
195881
198517
191269
176469
167861
170270
183273
196915
201755
198896
191853
184019
177393
170101
163531
158442
154027
149764
141532
129436
122723
121728
120593
111956
105292
109759
106002
95881.7
93486.1
96030
105064
109327
103502
87753.6
72981
61879.3
58910.1
62202.8
66672.8
69830.6
69862.3
65588.5
60309.7
55661.7
49400.1
43215.5
37748.4
31898.3
25597.7
20074.5
18367.9
19332.5
24278.9
19244.3
9140.05
-764934
-776113
-776849
-776703
-779423
-781024
-778844
-774739
-772330
-772887
-774862
-777014
-774507
-765106
-747762
-727594
-716063
-701549
-680430
-657878
-633952
-594629
-549516
-535717
-530677
-512273
-484418
-465661
-452877
-419026
-344937
-249234
-158861
-87716.4
-40877.6
-11877.2
15707.8
52280.1
101593
150131
181293
194900
187649
182684
190027
193709
195666
191701
180481
173841
174442
187739
199728
202920
199448
192823
184818
177765
170430
163731
158472
154394
150610
142077
129533
122715
121711
121265
112715
105375
109786
105860
95843.8
92503.5
95719.2
104733
109341
104522
89405.8
72966.2
60810.7
57858
61759.6
66600.4
69705.8
69502
65087.1
59895
55642.7
49822.1
43974.8
38857.8
33051.6
26501.3
21024.1
18241.3
20539.8
25211.4
20226.3
9157.43
-765284
-775887
-776905
-776717
-779231
-781039
-779361
-775348
-772591
-773186
-775204
-777041
-775085
-766270
-749254
-729256
-716898
-701335
-678804
-654995
-632889
-593972
-548782
-533552
-531379
-513546
-483771
-462670
-447497
-412931
-341033
-249215
-162971
-94877.7
-47569.4
-15387.7
15002.4
53346.2
102275
148890
179645
193634
185610
180315
188453
191682
192785
192048
184876
179400
179979
192343
203163
204077
200053
193856
185657
178448
170948
163619
158224
154795
151571
142542
129619
122435
121425
122017
113949
105618
109299
105649
96084.6
92210.4
95860
104212
109126
104944
90887.7
73478.8
60300.2
57056.1
61484.5
66566.9
69600.1
69187.6
64564
59293.8
55375.7
50233.8
44747.3
39989.5
34353.6
27503.2
21938.7
18359.1
21809.3
26344.5
21622.9
9126.63
-765677
-775555
-776878
-776695
-778998
-780885
-779709
-775915
-772914
-773460
-775476
-777019
-775248
-767010
-750417
-731278
-718261
-700907
-676656
-651635
-630428
-594484
-548447
-531508
-532401
-515436
-483660
-459728
-441544
-406264
-337003
-249084
-166696
-101538
-54200.5
-19447.9
13381.4
53372.4
101186
145558
175896
191082
182571
177115
185807
189277
191406
193217
189894
184665
185436
196964
207446
205480
201046
194964
186385
179921
171659
163231
158104
155439
152793
143432
129770
121534
120643
122855
115691
106409
108483
104761
95981.5
92911.3
96032.4
103655
108841
104999
91880.9
74585
60483.9
56488.5
61282.7
66644.6
69579.6
68849
64081.6
58490.2
55007.9
50663.5
45314
41127.2
35662.3
28625.3
22858.8
18890.7
23045.3
27555.7
23511.3
9303.99
-766038
-775170
-776762
-776633
-778690
-780696
-779948
-776340
-773200
-773683
-775581
-776663
-775003
-767544
-751634
-733874
-719809
-700461
-674253
-648102
-626669
-594641
-549057
-530220
-533702
-517891
-483991
-456761
-435154
-399390
-333217
-249064
-170103
-107679
-60278.5
-23505.4
11301.4
52336.3
98855.1
140630
170687
187237
178551
173249
183086
187060
190323
194041
194472
190957
191632
201584
212910
207925
202291
196460
187475
182199
172809
162740
158028
156577
154261
145121
129770
119867
119656
123569
117694
107669
108149
103479
95190.5
93527.2
96380.2
103331
108564
104846
92527.9
75621
60970.7
56250.7
61257.8
66724
69570.8
68795.5
63717.1
57557.5
54405
50933.5
45683.7
42057.1
36813.1
29466
23598.9
19763.8
24250.9
28827.6
25643.5
9683.67
-766490
-774725
-776539
-776537
-778388
-780339
-780154
-776754
-773478
-773788
-775375
-776066
-774337
-767697
-752847
-736805
-722232
-700610
-671320
-643374
-623022
-593956
-550575
-529530
-534239
-520697
-484471
-453311
-427868
-392173
-329595
-248898
-172930
-113071
-65733.5
-27531.6
8844.1
50674.9
95587.8
134398
164169
182133
173657
168659
180031
184905
189376
194986
198334
198901
198776
207542
219635
210974
203531
199217
189847
183791
173726
163016
158272
157535
156499
147571
129572
117603
118519
124466
119966
108926
108425
102536
94173.1
93375.7
96814.3
103446
108144
104650
93058.2
76469.4
61453.5
56409.1
61387.7
66857.5
69769.4
68873.6
63437.9
56862.2
53701.3
50766.3
45798.4
42757.5
37640.5
30172.7
24110.1
20763.8
25231.1
30242.7
28106.5
10348.5
-767091
-774295
-776201
-776437
-778036
-780015
-780305
-777196
-773752
-773783
-774914
-775205
-773611
-767534
-753979
-739582
-725085
-700518
-668134
-638137
-618684
-593460
-553438
-530454
-533733
-522217
-484341
-449619
-419629
-383997
-325441
-248025
-174627
-117143
-70219.6
-31222.5
6202.65
48557.9
91608.8
127177
156164
175547
167734
163482
176226
182304
188446
196618
201509
204833
205196
213362
226785
215742
205080
203070
192558
185667
174369
162491
159577
160242
159132
149406
130280
115860
117532
125922
122232
110370
109501
102942
93543
92733.8
97423.6
103705
107586
104643
93659.5
77180.3
61658.7
56596.3
61985.2
67290.8
69826.3
68636.2
63132.5
56486.5
53330.8
50190
45766.6
43324.5
38346.4
30815.7
24378.2
21793.7
26300
31582.9
30476.7
11417.2
-767779
-773862
-775792
-776195
-777735
-779669
-780330
-777585
-774146
-773801
-774459
-774358
-772773
-767251
-754873
-741693
-727997
-700019
-664482
-633288
-613614
-591063
-554540
-531461
-532957
-523147
-483392
-444970
-410940
-374999
-320444
-246124
-174820
-119485
-73164.9
-33998.7
3913.9
46471.7
87662.5
119849
147533
167570
160651
157263
171322
178781
186774
196778
204139
209375
210287
217177
232088
219180
207217
206067
195284
187572
176209
163801
160885
162598
160980
151711
132446
114451
116933
127981
123546
112641
111882
103940
93650.6
93016.9
98980.7
104141
106390
104262
94701.5
77543.1
61647.5
57290
62616.2
68022.6
70144.6
67980.7
62632.4
56506.2
53229.1
49543.6
45373.5
43786.2
38970.6
31191.4
24643.4
22878.5
27370.7
32542.4
32959.2
12873.7
-768560
-773389
-775327
-776014
-777403
-779356
-780220
-777760
-774547
-773962
-774018
-773586
-772145
-767062
-755407
-743117
-730081
-699656
-661181
-628106
-607577
-587165
-553804
-531108
-530284
-522185
-483046
-440944
-402351
-365190
-314362
-243042
-173213
-119705
-74261.2
-35689.7
2216.14
45043.1
84826.3
113670
139484
159371
153193
150427
165417
174205
183671
194594
205084
211561
212514
218661
232665
219806
207982
208563
197002
188825
177488
164103
163303
166706
161919
153134
135508
113791
116138
129538
124092
114701
114748
104993
94097.5
94407.6
101759
104926
104512
102922
95154.6
78618
61727.4
57755.2
63557.1
69128.9
70792.3
67747.9
61871.6
55904.3
53220
49262.9
44815.8
43898.7
39448.2
31526.6
24753.1
23706.3
28417.6
33384
34988.3
14287.3
-769312
-772969
-774924
-775781
-777142
-779052
-779910
-777694
-775012
-774197
-773741
-773142
-771813
-766926
-755577
-744062
-731346
-699444
-658832
-624015
-601623
-582243
-552361
-530834
-527430
-519296
-481880
-437496
-394837
-355435
-306833
-238362
-169602
-118127
-74065
-36769.8
1014.99
44730.8
84182.8
109789
133029
152225
146787
144380
159531
169403
179978
191753
204240
210984
212251
218429
228410
218265
207952
207699
198227
190271
178512
164504
165098
169222
161413
153314
136679
113706
115936
129932
123142
115133
116865
106838
95166.2
95841.9
104124
105679
103133
100803
94322.8
79323.6
62367
58280.8
64331.5
70000.1
71720
67975.4
60625.4
54820.2
52859.5
48803.2
44462.3
43546.7
39673.3
31754.5
24824.9
24280.5
29195.4
34135.7
37048.7
16058.2
-769911
-772565
-774594
-775675
-776976
-778702
-779472
-777562
-775463
-774387
-773600
-773049
-771791
-766823
-755595
-744753
-732171
-699566
-657360
-620902
-596247
-577229
-549901
-529311
-524869
-516486
-481530
-436030
-390675
-348064
-296884
-228178
-162466
-115150
-74195.5
-38674
-352.028
45632
86956.9
109902
129511
147559
142923
140749
155233
165371
176585
189005
202562
210977
211959
217729
223103
216617
207499
204717
199162
190640
178262
166720
167866
170049
159839
152504
136087
113764
116404
129571
121836
114893
116773
107172
96877.8
96860.5
104601
106117
101404
98699.4
93703.8
79607.4
63366.1
58481.5
64214.9
70497.1
72350.6
68079.1
59897.7
53503.5
51731.2
48387.2
44407.4
43094.7
39493.8
31566
24927
24751.1
29768.7
34942.5
39005.4
17748.8
-770271
-772165
-774369
-775560
-776891
-778425
-779119
-777506
-775801
-774442
-773509
-773209
-771945
-766844
-755648
-745380
-733104
-700246
-656569
-618295
-590330
-571276
-546226
-526303
-521832
-514510
-483083
-437555
-390530
-345323
-291908
-221884
-157037
-109381
-72509.6
-40331.3
-798.411
49035.8
93810.8
112948
127141
144249
141357
139766
153184
163039
174300
187701
201975
210532
213832
217375
219216
215797
207548
204070
198937
191377
178329
169067
171425
169738
158455
151472
135312
114411
116957
128950
121149
114579
115486
107353
98382.2
96411.9
103411
106414
100312
96878.6
93581.2
79700.6
63795
59009.7
64123.9
70329.6
72799.6
68301.3
59294.8
52577.5
50726.5
47887.9
44334.9
42838.4
39098.2
31276.9
25040.2
25095
30137.6
35704.5
40388
19082.5
-770335
-771799
-774142
-775498
-776744
-778194
-778806
-777419
-776004
-774401
-773348
-773503
-772279
-766938
-755953
-746255
-734087
-701123
-656378
-615990
-585244
-566551
-544082
-525863
-521847
-514320
-486164
-442089
-396004
-349398
-292960