/*--------------------------------*- C++ -*----------------------------------*\
| =========                 |                                                 |
| \\      /  F ield         | foam-extend: Open Source CFD                    |
|  \\    /   O peration     | Version:     5.0                                |
|   \\  /    A nd           | Web:         http://www.foam-extend.org         |
|    \\/     M anipulation  |                                                 |
\*---------------------------------------------------------------------------*/
FoamFile
{
    version     2.0;
    format      ascii;
    class       volScalarField;
    location    "0.07";
    object      pd;
}
// * * * * * * * * * * * * * * * * * * * * * * * * * * * * * * * * * * * * * //

dimensions      [1 -1 -2 0 0 0 0];

internalField   nonuniform List<scalar> 
4000
(
-768996
-771476
-772311
-771852
-771574
-771422
-771024
-769512
-766590
-763139
-759341
-752634
-741617
-728432
-713670
-700808
-691186
-679673
-665802
-644739
-617270
-581087
-550204
-528866
-503994
-466578
-430799
-405931
-362721
-315360
-261186
-183036
-101610
-41990.9
4344.02
40963.6
59642.9
74426.7
98741.3
129454
160145
188323
204075
217614
216320
205344
183220
154359
142977
133539
131738
139044
144504
154154
158037
157077
156299
154652
151035
146333
141661
136854
130796
125418
123577
121215
116917
112215
109659
108101
105673
104849
105094
104505
102982
100320
96339.9
91480.9
86890
83536.4
81109.4
79259.6
76985.3
73994.2
70757.4
65838
59517.5
54188.5
48761.5
41951.1
34610
28738.6
25086.7
21311.4
19664.5
19804.2
18482.7
15279
10180.8
4074.16
-768996
-771543
-772301
-771807
-771508
-771320
-770864
-769283
-766234
-762678
-758805
-752121
-741181
-728259
-713312
-700726
-691675
-679941
-665526
-645867
-618898
-582310
-550585
-528865
-503618
-465771
-431168
-403594
-363812
-317396
-261504
-182025
-100862
-42309.7
3413.94
38303.5
55554.1
71913
96845.9
128282
158995
184987
203785
219384
216168
206864
181314
155076
143507
133300
132603
139470
146049
154635
158069
156520
155826
154592
150444
145878
141387
136628
130599
125108
123510
121141
116918
112161
109604
108089
105637
104736
104929
104318
102818
100186
96258.2
91395.8
86798.4
83464.9
81074
79277.8
76885
73856.3
70619.9
65733.3
59435.8
54097.4
48663.9
41932.1
34596.1
28728.9
25175.5
21356.8
19637.5
19846.5
18620
15465
10220.2
3898.36
-768887
-771676
-772361
-771793
-771471
-771306
-770769
-769081
-765947
-762367
-758456
-751653
-740811
-727998
-712846
-700488
-691763
-680601
-666195
-645814
-620246
-584698
-552184
-530869
-502327
-464541
-433159
-404905
-367234
-320515
-263676
-182200
-99854.3
-40918.9
3497.61
35876.9
53701.1
69619.2
94745.1
127200
158418
185842
203244
217406
218385
208460
180440
156634
144847
133528
133898
140472
148012
156223
158400
156246
155525
154796
149946
145346
141184
136481
130470
125040
123197
120991
117013
112089
109485
107964
105633
104679
104818
104265
102787
100034
96122.5
91253.3
86717.3
83383.3
81006.7
79391.9
76807.8
73808
70530.3
65611.7
59436
54011.8
48602.9
41896.9
34472.7
28563.7
25150.8
21405.8
19618
19913.2
18827.3
15802.8
10261.4
3543.08
-768708
-771872
-772496
-771784
-771507
-771333
-770766
-768956
-765711
-762073
-758177
-751309
-740565
-727671
-712533
-700361
-691991
-681446
-667219
-647186
-621642
-587111
-554698
-531680
-500370
-462698
-433909
-406794
-370685
-324370
-267854
-182996
-97203.9
-39103.6
3211.84
33821.4
51984.9
67419.6
92668.9
126198
158524
185307
203447
216980
219956
208554
182419
158459
145310
135778
135934
141873
150252
157556
159092
156611
155896
154745
149655
144864
141032
136506
130370
124912
122999
120917
116770
112250
109428
107849
105640
104673
104938
104279
102737
100024
96055.8
91075.3
86563.7
83270.9
80982.1
79433.4
76877.4
73818.5
70483.8
65521.9
59483.3
54015
48444.5
41753.1
34398.7
28401.5
24917.8
21438.5
19744.7
19967.1
19070.7
16170.5
10244.7
3058.06
-768503
-772133
-772651
-771876
-771483
-771412
-770863
-768919
-765491
-761805
-757980
-751035
-740402
-727270
-712562
-700772
-692427
-682390
-668204
-648843
-623338
-590153
-557577
-531728
-498223
-461785
-433487
-408409
-374536
-329329
-273147
-184085
-93588.4
-37519.8
3499.42
31818.5
48510.7
66066.8
92978.5
125869
157460
184721
204032
217153
220507
209363
184695
160278
146292
138570
140400
143464
152877
159498
160542
158139
155833
154464
149859
145365
140781
136472
130261
124905
123293
120608
116161
112378
109623
107870
105714
104843
105035
104384
102872
100023
95959.4
90927.3
86368.6
83107.6
80882.4
79561.6
77144.3
73869.7
70367.1
65409.7
59440.5
54088.6
48445.7
41522.6
34114.8
28211.5
24606.2
21408.8
19882.7
19970.2
19412.2
16622.5
10184.7
2373.74
-768269
-772466
-772827
-771858
-771567
-771512
-771110
-768946
-765236
-761655
-757831
-750963
-740420
-727086
-712803
-700968
-692955
-683559
-669579
-650559
-625095
-593330
-559944
-531121
-495836
-460252
-433348
-410913
-378675
-334826
-278801
-185477
-90440.4
-34672.1
4332.33
29501.1
45403.3
65218.4
92699.1
123770
157254
185639
204398
216841
220335
211628
187323
161368
146963
140625
143547
145939
156044
162403
161873
159286
155900
155082
150569
146393
141262
136134
130319
125384
123297
120033
115927
112523
109801
108016
105839
105062
105221
104478
103126
100105
95844.1
90713.3
86131.8
82893.6
80835.4
79924.8
77311.1
73774.2
70411.8
65251
59360.5
54092.9
48529.2
41312
33687.6
27928.7
24173.6
21263.6
19975
20070.9
19815
17062.8
10192.7
1802.65
-768003
-772851
-773010
-771897
-771663
-771698
-771386
-769082
-765201
-761651
-757726
-751139
-740761
-727138
-712885
-701675
-693572
-684371
-671098
-652988
-626816
-594268
-560665
-529848
-494175
-458665
-433694
-414183
-384039
-340922
-284177
-189021
-89106.4
-33261.1
4120.34
27016.2
42633.7
64031.6
92348
123803
157595
186261
204039
215947
220090
212450
188677
161944
147203
142047
146144
149090
158717
165368
163418
160578
156995
155235
151533
147452
141965
135971
130534
125713
122937
119521
115868
113010
110094
108311
106153
105103
105427
104734
103260
100210
95700.9
90450.1
85827.6
82649.7
80771.3
80201.3
77559
73765.2
70269.8
65201.4
59535.6
53822.1
48412.7
41142
33289.2
27470.3
23504.1
21296.3
19993.1
20283.3
20138.1
17422.3
9844.3
1157.68
-767671
-773294
-773221
-771948
-771818
-771893
-771661
-769317
-765315
-761757
-757766
-751441
-741160
-727353
-713001
-702376
-694627
-685431
-672770
-655289
-628566
-595123
-560382
-527439
-492409
-456945
-435160
-419173
-390627
-349844
-290338
-194813
-90249.4
-33782.1
2565.43
25159.1
41037.6
62575.8
91719
125019
158721
185862
204222
215010
218263
213168
190013
161610
147010
142742
148199
151997
161293
168336
165349
161584
158179
155741
152551
148524
142306
136330
130960
126098
122802
119193
116156
113170
110378
108640
106571
105288
105507
104906
103496
100306
95527.9
90113
85563.8
82416.7
80755.1
80383
77690.1
73842.2
70210.3
65139.9
59772
53903.7
48089.7
40978.5
32892.1
26941.3
23026.8
20914.7
19995.2
20489.5
20271
17707.9
9306.55
617.495
-767319
-773745
-773413
-772052
-772033
-772170
-771905
-769460
-765442
-761975
-757924
-751812
-741905
-727648
-713108
-703179
-695959
-686809
-674709
-657579
-629989
-595596
-560244
-524788
-489992
-457093
-438937
-426603
-398616
-358511
-296626
-200813
-94953.1
-36711.6
663.027
23924.6
40052.4
60927
91720.9
126704
159784
186031
203146
211961
216493
213566
191211
161570
146470
144015
148848
154215
163898
170464
167245
163207
159349
156767
153449
149128
143273
137040
131519
126722
122812
118894
116450
113416
110675
109009
106985
105657
105440
105142
103844
100417
95325.2
89775.5
85333.8
82206.3
80856.2
80416.6
77753.3
73970.4
69996.6
65227.6
60172.3
54146
47747.6
40440.3
32702.7
26762.2
22418.8
20440
20065
20504.5
20570.2
17980.4
8528.65
-64.5615
-767052
-774135
-773541
-772172
-772370
-772508
-772151
-769573
-765613
-762298
-758245
-752186
-742574
-728185
-713576
-704135
-697455
-688286
-676625
-659424
-630823
-595033
-558549
-523101
-488236
-460481
-445887
-433180
-406222
-366495
-304657
-205688
-99910.3
-39393.4
-488.879
22615.2
38757
59685
91465.9
127359
160256
184814
200387
209588
214846
213526
192187
161782
145289
145158
149494
155741
166501
171846
169676
165195
160611
157854
154429
149947
144331
137777
132176
127493
123043
118911
116500
113760
110937
109187
107374
106258
105454
105277
104353
100606
95188.3
89490.8
85106.6
82022.5
80777.8
80476.7
77581.2
73820.6
70106.5
65503.4
60582.8
54612.6
47546
39683.3
32504.9
26629.4
22039.6
20135.9
19968.3
20535.9
20969.3
18171.9
7580.86
-687.684
-766856
-774454
-773619
-772294
-772786
-772934
-772403
-769695
-765785
-762648
-758662
-752786
-743255
-728812
-714388
-705623
-698917
-690065
-678682
-660349
-630052
-593788
-557156
-521986
-489373
-465299
-451616
-438632
-415092
-375464
-313307
-210988
-105736
-41544.2
-1074.01
21454.4
37443.4
58810.5
91113.8
126908
159509
183210
198743
207608
212832
213225
192811
162290
143442
145407
150843
157600
168637
173330
172010
167149
161940
158964
155502
150883
145411
138531
132923
128319
123500
119194
116632
114112
111262
109343
107757
106607
105733
105578
104769
100886
95157.5
89272.9
84948.4
81805.3
80462.4
80240.8
77268.4
73692.9
70434.2
66032.8
61209.6
54897.1
47576.7
39396.3
32321.1
26242.5
21680.5
19989
19728.4
20693.4
21285.9
18339.2
6780.46
-1279.06
-766665
-774709
-773676
-772466
-773210
-773359
-772697
-769859
-766023
-763044
-759218
-753594
-744107
-729891
-715137
-706873
-700784
-692215
-680452
-660896
-628671
-591426
-557513
-522790
-491865
-469228
-456440
-444527
-424118
-386677
-321949
-216072
-110318
-42061.4
-842.652
21063.8
36735.9
57802.3
89658.2
126098
159038
182624
197463
205365
211260
212102
193328
162961
142058
144941
152041
159129
169915
175535
174353
169093
163887
159621
156447
152038
146599
139339
133679
129199
123869
119529
116864
114605
111650
109508
108166
106896
105939
105991
105217
101238
95219.7
89139.8
84781
81516.1
79999
79638.2
76819.4
73540.2
70785.7
66613
61917.4
55452.5
47557.8
39331.6
32431.1
25863.6
21179.8
19749.1
19658.2
20885.1
21569.6
18429.9
6132.85
-1952.31
-766453
-774871
-773766
-772735
-773676
-773793
-772986
-769996
-766203
-763550
-760044
-754585
-745165
-731270
-716137
-708120
-702372
-694100
-682145
-661433
-627966
-590982
-558003
-524125
-494396
-473439
-460859
-450808
-432930
-399443
-330476
-220070
-113922
-41770.9
508.358
20686.5
35461.3
56537.7
88373.3
125059
158794
182585
195604
203265
209468
210800
194409
163394
141217
144412
153296
160448
171180
177945
176693
171298
165335
160665
157309
153351
147879
140245
134552
130065
124169
119838
117212
115062
111980
109712
108503
107241
106159
106371
105402
101667
95370.1
89054.6
84605.3
81141.8
79488.5
78894.5
76128.9
73028.3
70727.1
67525.6
62813.5
55817.3
47912.9
39689.8
32489.7
25554
20886.3
19545.6
19693.1
21096.2
21856.4
18516.6
5849.24
-2305.36
-766172
-774925
-773888
-773071
-774092
-774211
-773293
-770140
-766424
-764250
-761189
-755680
-746439
-732300
-716949
-709906
-704143
-695924
-683217
-661157
-626813
-592632
-558704
-525352
-496479
-477532
-465106
-456854
-442788
-412925
-339897
-224999
-117227
-40683
1844.76
19828.6
34338.4
55392.5
87103.5
123956
158088
182089
194469
201285
207638
209696
195301
164863
141333
143662
153532
162164
172651
180425
178989
172773
167001
161964
158184
154772
148702
141419
135632
131045
124698
120210
117892
115368
112223
109797
108630
107628
106262
106299
105737
102275
95675.5
89011
84421.3
80850.6
78668.5
77806.5
75193.7
72441.8
70949.9
68725.2
63574.2
56547.5
48501.1
39938
32581.9
25373.1
20779.2
19535.4
19798.2
21344
22197.7
18655.4
5866
-2241.35
-765921
-774868
-774031
-773430
-774562
-774747
-773605
-770346
-766795
-765125
-762484
-756690
-747670
-733720
-718292
-711676
-706177
-697915
-684208
-660751
-626703
-593364
-559672
-525983
-498324
-481428
-469200
-463034
-452880
-426070
-350586
-229922
-120089
-39043.6
3756.26
19476.8
33308.1
54358.6
86078.4
123120
157659
182525
193796
199590
205914
209032
196167
167142
141966
142622
153491
163719
174680
182422
180488
174459
168851
163109
159638
155826
149453
142572
136723
132135
125369
120532
118386
115953
112431
109493
108956
107865
106263
106081
105900
102925
96219.4
88996.5
84137
80445.2
77714.5
76556.4
74118.7
71895.2
71333.4
69550.7
64578.5
57432
48955.6
40603
32874.3
25466
20786.6
19660.5
19980.8
21601.8
22392.3
18705.3
6188.34
-2024.39
-765723
-774739
-774170
-773769
-775010
-775206
-773898
-770563
-767332
-766180
-763869
-758183
-749371
-735669
-719757
-713354
-708462
-699689
-684924
-659906
-628532
-593405
-560260
-526961
-499573
-484668
-473166
-468552
-462715
-438707
-360970
-234886
-123195
-37009.6
6506.63
19402.2
31852.1
53154
85042.5
122615
157963
183196
193006
198074
204877
208671
197125
169864
143079
141593
153524
165333
176343
184295
182212
175645
170624
164844
160828
156666
150381
143709
138149
132934
125930
121168
118913
116239
112507
108998
108801
108333
106128
105728
106027
103336
97010.1
89291.7
83841.3
79655.6
76638.3
75132.4
72849.7
71285.7
71697.6
70405.6
65562.7
57992.9
49715.7
41424
33093.7
25931.9
21249.1
19745.3
20089.3
21660
22423.7
18904.4
6551.69
-1837.65
-765476
-774611
-774302
-774104
-775472
-775719
-774202
-770804
-767945
-767337
-765333
-759396
-751042
-737894
-721505
-715470
-710508
-701035
-685126
-659538
-630032
-593932
-560249
-528516
-502559
-486966
-477468
-472121
-470669
-448871
-368729
-240613
-126360
-34482.8
9696.66
18483.1
29398.2
51696.5
84009.7
122365
158697
183726
192419
197052
204159
207973
198176
173125
144553
140922
154097
166409
177625
186102
184180
177211
171877
166358
162353
157308
151209
145124
139420
133527
126651
121852
119308
116451
112154
108706
108801
108548
105683
105250
105716
103705
98208.4
90022.6
83633.8
78811.6
75435.9
73683.6
71318.8
70434.1
72008.9
71273.4
66374.3
58579.8
50534.6
42248.6
33701
26306.9
21764.8
19959.4
20006.6
21477.4
22241.6
19095.4
7159.51
-1515.26
-765184
-774567
-774393
-774398
-776016
-776198
-774440
-771110
-768665
-768228
-766459
-761119
-753158
-740479
-723450
-717232
-712024
-701826
-684751
-660564
-630551
-594111
-560289
-529849
-505737
-489260
-481052
-474631
-475580
-455524
-374447
-244436
-129934
-33612.5
13754.2
18950.9
26326.6
49455.8
83466.6
122779
159836
184725
192165
195966
203359
206840
199136
176125
146589
141150
154622
167151
179386
187709
185501
179309
173603
167784
163528
157940
152019
146486
140618
134150
127201
122490
119661
116363
111987
108679
108568
108045
105240
104656
105255
104091
99311.2
90906
83469.7
78014.7
74383.8
72160.7
69815
69561.1
72186.4
71906.1
66906.7
59149
51373.1
43065.9
34492
26927.4
22184.9
20024.1
19793.1
21118.8
21835.7
19451.6
8232.51
-700.794
-764910
-774598
-774476
-774831
-776498
-776522
-774639
-771450
-769334
-769018
-767785
-763293
-755425
-742555
-725098
-718776
-713068
-701930
-684574
-661415
-630898
-594513
-560116
-530485
-508605
-493499
-483473
-476648
-475298
-455572
-376753
-250029
-135097
-38138.2
10425.2
16460.7
24120.8
48625.4
83162.7
123216
161521
186000
191932
195049
202693
206038
200264
178541
149880
141522
155151
168382
180953
189360
187032
181134
175299
169113
164462
158659
152863
147732
141747
134766
127749
123099
119757
116668
111825
108545
108279
107369
104631
103794
104733
104385
100305
91639.3
83385
77223.5
73241.7
70635.6
68182.2
68848
72004
72235.3
67238.3
59678.7
52138.7
43876
35439.2
27821.1
22751.1
20004.5
19480.3
20713.7
21529.9
20103.5
9797.63
468.077
-764640
-774770
-774609
-775192
-776969
-777106
-774902
-771775
-769935
-769696
-769107
-765416
-757891
-744884
-726514
-719429
-713546
-701539
-684928
-661840
-630779
-595111
-560202
-530233
-510584
-499057
-485017
-476995
-474117
-454628
-376152
-257514
-143485
-47847.5
745.452
10950.2
21949
47941.6
82363.9
123770
163872
187608
191841
194223
201947
205473
202208
179640
154028
142918
155681
169272
182520
190923
188691
182667
176308
170592
165728
159014
153485
149198
142909
135472
128327
123000
119986
117140
111830
108002
107848
107060
103956
102809
104022
104686
101576
92668.1
83397.1
76412.3
72052.7
69128.1
66626.8
68188.7
71738.5
72250.3
67332.2
60106.7
52758.5
44784
36475.8
28628.1
23378.9
20077.9
19190.2
20289.2
21066.9
20848.3
12111.8
1863.86
-764388
-775039
-774796
-775494
-777653
-777745
-775092
-771960
-770368
-770359
-770692
-768116
-760906
-748264
-729346
-720170
-713103
-701344
-684771
-662123
-631721
-595939
-560401
-528963
-513968
-503376
-485712
-476815
-471939
-451126
-373884
-263087
-152475
-58574.7
-9513.23
4809.8
19856.4
47069.3
81627.2
125156
167518
189809
191679
193143
201124
204931
204413
180386
158401
145786
156244
170118
184072
192446
190379
183964
177706
171981
166534
159331
154604
150673
143705
136377
128697
122712
120162
117550
111828
107407
107478
106574
103033
101840
103125
104870
103222
94052.9
83609
75753.7
70703.1
67746.2
65603
67774.6
71463.8
72010
67228.9
60403.5
53374.4
45619.7
37445.2
29417.1
23698.2
20251.1
18966.1
19725.1
20393.7
21466.5
14448
3601.97
-764244
-775341
-775066
-775726
-778270
-778350
-775358
-772053
-770632
-771029
-772390
-771280
-764287
-751416
-731907
-721330
-712588
-701489
-684263
-662422
-632455
-596521
-560836
-528150
-518552
-507227
-486386
-475533
-467860
-443961
-368630
-261087
-152796
-64858
-18471.6
-1433.2
16982.4
46412.3
82550.7
128377
171264
192674
192215
191888
200273
204392
205571
183251
160768
149419
157320
171304
185881
194082
192089
185422
178827
173034
167528
160355
155601
151617
144482
137275
128931
122831
120072
117564
111780
107100
107539
106130
101728
100551
102164
104561
104228
95375
83976.1
75421.2
69428.8
66210.1
64848.4
67525.8
71297
71666.4
67059.2
60614.1
53977.6
46396.3
38411.4
30440
24334.3
20618.5
18679.5
19327.3
19561.4
21825.1
15709.6
5107.24
-764178
-775637
-775377
-775984
-778714
-778927
-775738
-772170
-770776
-771520
-773821
-773954
-767258
-754295
-734734
-722512
-712658
-701514
-683442
-662143
-633229
-596599
-559129
-530520
-522931
-508964
-487860
-474158
-465354
-439985
-363721
-256686
-148949
-65290.3
-22622.2
-5576.72
14754.2
46411.3
85080.2
132569
174947
196452
192572
190280
198787
203046
205386
186983
161773
153992
159132
172698
187673
195973
193818
187111
180243
174090
168351
161404
156359
152043
145387
138160
129201
123017
120231
117877
111367
106639
108066
106098
100279
98913.8
100938
104161
105007
96465.9
84247.6
75003.2
68198.1
64699.1
64152.9
67251
71054.7
71313.1
66849.8
60754.8
54555.3
47165.9
39454.3
31767.5
25651
21405.4
18447.4
19256.6
18653.3
22050.3
16312.1
6522.44
-764142
-775901
-775728
-776224
-779078
-779462
-776174
-772497
-771042
-771809
-774588
-775692
-769511
-756820
-738052
-723476
-713192
-701674
-682971
-661325
-633712
-597606
-555685
-533587
-527602
-509272
-488276
-472923
-463610
-436505
-359331
-251507
-146808
-66719.8
-24782.2
-6703.1
14175
47455.9
89266.4
138546
179033
197571
191734
188471
196796
201372
204213
188866
164377
157394
161437
174586
189672
197693
195515
188756
181372
175062
168950
162108
157036
152394
146448
139113
129503
122814
120476
118587
111297
106011
108577
106273
98818.4
97358.5
99486.8
104063
106065
98001.7
84528.6
74502.4
66416.1
63172.4
63586.1
67003.3
70766.8
70920.2
66588.5
60808.8
55054.8
47968.4
40488.7
33524.2
27565.1
22484.7
18196.1
19099.5
18221.1
22413.2
16944
7767.28
-764148
-776133
-776088
-776421
-779361
-779973
-776687
-773000
-771447
-772071
-774628
-776620
-771322
-759301
-740759
-723999
-713925
-701759
-682870
-661324
-633469
-597457
-553308
-535699
-529840
-510133
-487633
-471663
-462292
-432786
-355433
-249643
-147815
-69824.2
-27082
-6524.06
14648.1
47781.6
92082.4
141563
179180
195781
190330
187012
194956
199786
202853
190349
168457
159146
164228
176956
192004
199042
197065
190164
182228
175781
169489
162755
157606
152892
147567
140064
129474
122615
120934
119329
111453
105534
108963
106337
97554.5
95996.3
98012.3
104428
107587
99871.3
85212.2
74026
64708.7
61545.3
63122.3
66851.3
70420.2
70480.7
66340.1
60746.9
55377.6
48644.5
41458.8
35297.1
29540.9
23690.4
18483
18927
18092
22894.5
17657.3
8614.44
-764286
-776277
-776394
-776570
-779502
-780455
-777388
-773474
-771768
-772280
-774527
-776976
-772700
-761471
-743488
-725041
-714766
-701701
-682384
-661038
-633875
-597072
-551160
-537377
-530199
-510775
-486490
-470099
-460210
-428691
-351930
-249196
-150959
-74312.9
-29895.2
-8499.33
14055.6
48832.1
95320.7
144732
179986
195541
189621
185838
193201
198213
200904
190833
172309
162416
167342
179970
194215
200062
198208
191249
183105
176604
169883
163326
158102
153481
148772
140835
129421
122603
121481
120042
111601
105301
109412
106197
96548.9
94685.2
96779.9
104909
108807
101755
86342.3
73370.8
63274.4
60117.1
62690.5
66793.8
70071.2
70134.1
66020.5
60560
55602.4
49075.9
42334.9
36673.3
30883
24724.8
19177.9
18661.5
18475.4
23491
18378.1
8991.95
-764563
-776270
-776687
-776659
-779531
-780840
-778163
-774081
-772073
-772584
-774623
-777041
-773723
-763398
-745824
-726223
-715444
-701647
-681586
-659895
-634152
-596144
-550120
-537243
-530330
-511505
-485368
-468103
-457073
-424310
-348626
-249164
-154710
-80615.2
-34758.4
-9216.27
15566
50660.7
99393.8
148991
181359
195304
188809
184437
191379
195881
198518
191269
176470
167862
170270
183273
196916
201756
198896
191854
184020
177394
170101
163531
158443
154028
149764
141533
129436
122724
121728
120593
111957
105293
109759
106002
95882.2
93486.6
96030.4
105064
109328
103503
87754.1
72981.5
61879.8
58910.6
62203.3
66673.3
69831.1
69862.8
65589
60310.1
55662.2
49400.6
43216
37748.9
31898.8
25598.2
20075
18368.4
19333
24279.4
19244.8
9140.54
-764934
-776113
-776849
-776702
-779422
-781024
-778844
-774738
-772329
-772886
-774861
-777014
-774507
-765106
-747761
-727593
-716063
-701548
-680430
-657877
-633951
-594628
-549516
-535717
-530677
-512272
-484418
-465661
-452876
-419026
-344937
-249233
-158861
-87715.9
-40877.1
-11876.7
15708.3
52280.5
101594
150131
181294
194900
187650
182684
190028
193709
195667
191701
180482
173842
174442
187740
199728
202921
199449
192823
184818
177766
170430
163732
158473
154395
150610
142078
129534
122716
121711
121266
112716
105376
109787
105861
95844.3
92504
95719.7
104734
109341
104523
89406.3
72966.7
60811.2
57858.5
61760.1
66600.9
69706.3
69502.5
65087.6
59895.5
55643.2
49822.5
43975.3
38858.3
33052.1
26501.8
21024.6
18241.7
20540.3
25211.9
20226.8
9157.92
-765283
-775886
-776904
-776717
-779230
-781038
-779361
-775347
-772591
-773186
-775203
-777040
-775084
-766270
-749254
-729255
-716897
-701335
-678803
-654995
-632889
-593972
-548781
-533552
-531378
-513546
-483770
-462670
-447497
-412931
-341032
-249214
-162970
-94877.2
-47568.9
-15387.2
15002.9
53346.7
102275
148890
179645
193635
185610
180315
188454
191682
192786
192048
184877
179400
179980
192343
203164
204077
200053
193857
185657
178449
170948
163619
158225
154795
151572
142542
129619
122436
121425
122017
113949
105618
109300
105650
96085.1
92210.9
95860.5
104213
109126
104945
90888.2
73479.3
60300.7
57056.6
61485
66567.4
69600.6
69188.1
64564.5
59294.3
55376.2
50234.3
44747.8
39990
34354.1
27503.7
21939.2
18359.6
21809.8
26345
21623.4
9127.12
-765676
-775555
-776877
-776694
-778997
-780885
-779709
-775915
-772913
-773459
-775475
-777018
-775248
-767009
-750417
-731277
-718260
-700907
-676655
-651635
-630427
-594484
-548447
-531507
-532401
-515435
-483659
-459727
-441543
-406263
-337002
-249084
-166695
-101538
-54200
-19447.4
13381.9
53372.9
101186
145559
175896
191082
182572
177116
185807
189277
191407
193218
189894
184666
185437
196965
207446
205481
201047
194964
186385
179922
171659
163232
158105
155439
152793
143432
129771
121535
120644
122855
115692
106409
108483
104761
95982
92911.8
96032.9
103656
108841
104999
91881.4
74585.5
60484.3
56489
61283.2
66645.1
69580.1
68849.5
64082.1
58490.7
55008.4
50664
45314.4
41127.7
35662.7
28625.8
22859.3
18891.2
23045.8
27556.2
23511.8
9304.48
-766037
-775170
-776761
-776633
-778690
-780695
-779947
-776339
-773200
-773682
-775580
-776663
-775002
-767543
-751634
-733874
-719808
-700460
-674253
-648102
-626669
-594640
-549057
-530219
-533701
-517891
-483991
-456760
-435154
-399390
-333216
-249064
-170102
-107678
-60278
-23504.9
11301.9
52336.8
98855.6
140630
170687
187238
178552
173250
183087
187060
190323
194042
194472
190958
191633
201585
212910
207926
202291
196460
187476
182200
172809
162741
158028
156577
154262
145121
129771
119867
119656
123569
117694
107669
108149
103480
95191
93527.7
96380.7
103331
108564
104846
92528.4
75621.5
60971.1
56251.2
61258.3
66724.5
69571.3
68795.9
63717.6
57557.9
54405.4
50934
45684.2
42057.6
36813.5
29466.4
23599.4
19764.3
24251.4
28828.1
25644
9684.16
-766490
-774724
-776538
-776537
-778388
-780339
-780153
-776754
-773478
-773788
-775375
-776065
-774337
-767696
-752847
-736804
-722231
-700609
-671319
-643373
-623021
-593956
-550574
-529530
-534239
-520697
-484471
-453310
-427867
-392172
-329595
-248897
-172929
-113071
-65733.1
-27531.1
8844.59
50675.4
95588.3
134398
164170
182133
173657
168660
180031
184906
189377
194987
198334
198901
198777
207543
219636
210975
203532
199218
189848
183792
173726
163017
158273
157536
156500
147572
129573
117604
118519
124467
119966
108926
108426
102536
94173.6
93376.2
96814.8
103446
108145
104650
93058.7
76469.9
61454
56409.6
61388.1
66858
69769.8
68874.1
63438.3
56862.7
53701.8
50766.8
45798.9
42758
37641
30173.2
24110.6
20764.2
25231.6
30243.2
28107
10349
-767090
-774294
-776201
-776437
-778036
-780014
-780304
-777196
-773751
-773783
-774914
-775205
-773611
-767534
-753978
-739581
-725084
-700518
-668134
-638137
-618683
-593460
-553437
-530454
-533732
-522217
-484340
-449619
-419628
-383996
-325440
-248024
-174627
-117142
-70219.1
-31222
6203.14
48558.3
91609.3
127177
156165
175548
167734
163483
176226
182304
188447
196619
201510
204834
205197
213363
226785
215742
205081
203071
192559
185668
174369
162491
159577
160242
159133
149406
130280
115861
117532
125922
122232
110371
109502
102943
93543.5
92734.3
97424.1
103706
107586
104644
93660
77180.8
61659.2
56596.8
61985.6
67291.3
69826.8
68636.7
63133
56487
53331.3
50190.5
45767.1
43325
38346.9
30816.2
24378.7
21794.2
26300.5
31583.4
30477.2
11417.7
-767779
-773862
-775791
-776195
-777734
-779669
-780330
-777584
-774146
-773800
-774459
-774357
-772772
-767251
-754873
-741692
-727997
-700019
-664482
-633288
-613614
-591063
-554539
-531461
-532957
-523147
-483392
-444969
-410939
-374999
-320444
-246124
-174819
-119485
-73164.4
-33998.2
3914.39
46472.2
87663
119849
147534
167571
160651
157263
171322
178782
186775
196779
204139
209376
210287
217177
232089
219181
207218
206067
195285
187572
176209
163801
160886
162599
160981
151711
132447
114451
116933
127981
123546
112642
111882
103941
93651.1
93017.4
98981.2
104141
106391
104263
94702
77543.6
61648
57290.4
62616.7
68023.1
70145.1
67981.2
62632.9
56506.7
53229.6
49544.1
45374
43786.6
38971.1
31191.9
24643.9
22879
27371.2
32542.9
32959.7
12874.2
-768559
-773389
-775326
-776013
-777402
-779355
-780219
-777759
-774547
-773961
-774018
-773585
-772145
-767062
-755407
-743117
-730080
-699655
-661181
-628106
-607577
-587164
-553804
-531107
-530284
-522185
-483045
-440944
-402351
-365189
-314361
-243042
-173213
-119705
-74260.7
-35689.2
2216.63
45043.6
84826.8
113671
139485
159372
153194
150428
165417
174206
183672
194595
205085
211561
212515
218662
232666
219807
207983
208564
197002
188826
177488
164104
163303
166707
161920
153135
135509
113791
116139
129538
124093
114702
114748
104993
94097.9
94408.1
101760
104927
104513
102922
95155
78618.5
61727.9
57755.7
63557.6
69129.4
70792.8
67748.4
61872.1
55904.8
53220.5
49263.4
44816.3
43899.2
39448.7
31527.1
24753.5
23706.8
28418.1
33384.5
34988.8
14287.8
-769311
-772969
-774924
-775781
-777142
-779051
-779910
-777693
-775012
-774197
-773741
-773142
-771812
-766926
-755576
-744061
-731345
-699444
-658832
-624015
-601622
-582243
-552360
-530834
-527429
-519296
-481880
-437495
-394836
-355435
-306833
-238362
-169602
-118127
-74064.5
-36769.3
1015.48
44731.3
84183.3
109790
133029
152226
146787
144380
159531
169403
179978
191754
204240
210985
212251
218429
228411
218266
207952
207700
198228
190272
178512
164505
165098
169223
161413
153314
136680
113706
115936
129933
123143
115134
116865
106838
95166.7
95842.3
104124
105679
103133
100804
94323.3
79324.1
62367.5
58281.3
64332
70000.6
71720.5
67975.8
60625.9
54820.7
52860
48803.7
44462.8
43547.2
39673.8
31755
24825.4
24281
29195.8
34136.2
37049.2
16058.7
-769911
-772564
-774594
-775674
-776975
-778701
-779472
-777561
-775463
-774386
-773599
-773049
-771790
-766823
-755594
-744752
-732170
-699565
-657359
-620902
-596246
-577229
-549900
-529311
-524869
-516486
-481530
-436029
-390674
-348063
-296883
-228178
-162466
-115149
-74195
-38673.5
-351.538
45632.5
86957.3
109903
129511
147559
142924
140749
155233
165372
176585
189006
202563
210977
211959
217730
223104
216618
207499
204717
199162
190640
178263
166721
167867
170050
159840
152505
136087
113765
116404
129572
121836
114893
116773
107172
96878.3
96861
104602
106117
101404
98699.9
93704.3
79607.9
63366.6
58482
64215.4
70497.6
72351.1
68079.6
59898.2
53504
51731.7
48387.7
44407.9
43095.2
39494.3
31566.5
24927.5
24751.6
29769.2
34943
39005.9
17749.3
-770271
-772165
-774368
-775559
-776890
-778425
-779118
-777505
-775800
-774441
-773508
-773209
-771944
-766844
-755648
-745380
-733103
-700246
-656568
-618295
-590330
-571275
-546226
-526303
-521832
-514510
-483082
-437555
-390530
-345323
-291907
-221883
-157036
-109380
-72509.1
-40330.8
-797.92
49036.3
93811.3
112949
127141
144249
141358
139767
153184
163040
174300
187701
201975
210532
213833
217376
219216
215797
207549
204071
198937
191378
178330
169067
171426
169739
158456
151473
135313
114411
116957
128951
121149
114579
115487
107353
98382.6
96412.3
103412
106415
100312
96879.1
93581.7
79701.1
63795.5
59010.2
64124.4
70330.1
72800.1
68301.8
59295.2
52578
50727
47888.4
44335.4
42838.9
39098.7
31277.4
25040.7
25095.5
30138.1
35705
40388.5
19083
-770334
-771799
-774142
-775497
-776743
-778193
-778805
-777419
-776003
-774401
-773347
-773503
-772279
-766937
-755952
-746255
-734087
-701122
-656378
-615989
-585244
-566550
-544082
-525862
-521846
-514319
-486164
-442089
-396003
-349397
-292959
-220593
-154796
-106538
-73025.7
-43084
-1358.05
49619.6
92998.2