/*--------------------------------*- C++ -*----------------------------------*\
| =========                 |                                                 |
| \\      /  F ield         | foam-extend: Open Source CFD                    |
|  \\    /   O peration     | Version:     5.0                                |
|   \\  /    A nd           | Web:         http://www.foam-extend.org         |
|    \\/     M anipulation  |                                                 |
\*---------------------------------------------------------------------------*/
FoamFile
{
    version     2.0;
    format      ascii;
    class       surfaceScalarField;
    location    "0.07";
    object      phi;
}
// * * * * * * * * * * * * * * * * * * * * * * * * * * * * * * * * * * * * * //

dimensions      [0 3 -1 0 0 0 0];

internalField   nonuniform List<scalar> 
7860
(
0.0780473
-0.0730473
0.0666908
0.0113856
0.0394692
0.0272488
0.0285559
0.0109423
0.0142019
0.0143821
-0.0231909
0.0374209
-0.0946186
0.071456
-0.19656
0.10197
-0.317553
0.121022
-0.460181
0.142657
-0.653152
0.193
-0.893468
0.240345
-1.12328
0.229836
-1.32344
0.20019
-1.42447
0.101054
-1.51827
0.0938305
-1.75131
0.233063
-2.04543
0.294141
-2.32732
0.2819
-2.62657
0.299261
-2.85377
0.22721
-2.90352
0.0497628
-2.90207
-0.00144474
-3.09164
0.189575
-3.38098
0.289337
-3.62075
0.239776
-3.82683
0.206083
-3.90708
0.080245
-3.98083
0.0737527
-4.2243
0.243465
-4.52825
0.303947
-4.90203
0.373781
-5.38634
0.484299
-5.64517
0.258824
-5.49147
-0.153706
-5.20082
-0.290656
-5.10491
-0.095909
-4.9569
-0.148015
-4.83924
-0.117672
-4.73876
-0.10048
-4.63701
-0.101762
-4.61314
-0.0238745
-4.33657
-0.276573
-3.94151
-0.395069
-3.52564
-0.415876
-3.0745
-0.45115
-2.89113
-0.18337
-2.75886
-0.132282
-2.61074
-0.148123
-2.57403
-0.0367156
-2.57858
0.00454613
-2.56497
-0.0136179
-2.3695
-0.195483
-2.03435
-0.335154
-1.68135
-0.353008
-1.3815
-0.299866
-1.15133
-0.230173
-0.868326
-0.283016
-0.690174
-0.178162
-0.55905
-0.131134
-0.441147
-0.117913
-0.345991
-0.0951665
-0.269925
-0.0760755
-0.241655
-0.0282814
-0.210162
-0.0315036
-0.205858
-0.00431382
-0.19031
-0.0155582
-0.179183
-0.0111375
-0.174751
-0.0044423
-0.164768
-0.00999246
-0.144098
-0.0206796
-0.113411
-0.0306966
-0.0530425
-0.0603785
0.029457
-0.082509
0.110076
-0.0806285
0.169068
-0.0590005
0.213509
-0.0444497
0.231014
-0.0175129
0.225764
0.00524144
0.214919
0.0108371
0.21084
0.0040719
0.234016
-0.0231833
0.274099
-0.0400912
0.334657
-0.0605648
0.407002
-0.0723527
0.461764
-0.0547685
0.494308
-0.0325502
0.524129
-0.029828
0.552183
-0.0280594
0.555106
-0.00292854
0.51801
0.0370904
0.457477
0.0605293
0.426012
0.0314606
0.389623
0.0363846
0.350949
0.0386712
0.33664
0.0143063
0.340817
-0.00417957
0.35509
-0.0142749
0.361157
-0.00606871
-0.0314012
0.140785
-0.208805
0.159769
-0.00753284
0.146522
0.0405574
0.139042
0.0184842
0.112278
0.0412078
0.0213287
0.128431
-0.126734
0.21958
-0.320551
0.295847
-0.565583
0.366115
-0.876972
0.454108
-1.23249
0.548584
-1.54635
0.554254
-1.81785
0.501401
-1.98454
0.366931
-2.08
0.196554
-2.12906
0.142934
-2.14327
0.24731
-2.33631
0.487208
-2.64124
0.586851
-2.74366
0.401696
-2.74584
0.229398
-2.85076
0.154698
-3.1377
0.285496
-3.6335
0.68538
-3.99988
0.655718
-4.28012
0.520019
-4.78039
0.706358
-5.31838
0.618234
-5.66106
0.416427
-5.80755
0.389954
-6.30873
0.805121
-7.18238
1.24742
-7.91791
1.21982
-8.03605
0.376951
-7.70016
-0.489603
-7.25058
-0.740246
-6.69216
-0.654341
-6.4756
-0.364586
-6.36007
-0.233212
-6.22466
-0.235909
-6.03224
-0.294188
-5.57235
-0.48378
-5.27982
-0.569113
-5.02609
-0.648814
-4.46029
-0.981685
-3.81498
-1.09647
-3.29751
-0.700847
-2.98358
-0.446224
-2.76602
-0.365694
-2.56043
-0.242311
-2.45056
-0.105337
-2.41531
-0.0488851
-2.41222
-0.198581
-2.3045
-0.442888
-2.1015
-0.556028
-1.86997
-0.531404
-1.62353
-0.476628
-1.35759
-0.548981
-1.11324
-0.422528
-0.906876
-0.337512
-0.724098
-0.300709
-0.563125
-0.256157
-0.437582
-0.201637
-0.334226
-0.131656
-0.336238
-0.0295099
-0.303536
-0.0370353
-0.28593
-0.0331824
-0.303356
0.00627035
-0.310254
0.00243697
-0.322248
0.00198282
-0.290171
-0.0527756
-0.217102
-0.103785
-0.0900486
-0.187451
0.0937297
-0.266307
0.292597
-0.279514
0.411881
-0.178302
0.483675
-0.116261
0.520258
-0.0541129
0.54357
-0.0180866
0.532781
0.0216105
0.522829
0.0140081
0.567848
-0.0682177
0.643495
-0.115753
0.776913
-0.193998
0.899626
-0.19508
0.999509
-0.154666
1.08849
-0.12154
1.14292
-0.084272
1.19741
-0.0825647
1.21314
-0.0186628
1.15484
0.0953787
1.05957
0.155787
0.965358
0.125667
0.901401
0.100334
0.847743
0.0923233
0.799187
0.0628559
0.757028
0.0379755
0.696582
0.0461671
0.655861
0.0346509
-0.0515277
0.157009
-0.360778
0.213927
-0.0643822
0.245534
0.00901139
0.278742
-0.0146616
0.267711
0.0523005
0.191074
0.205128
0.0169383
0.393776
-0.220294
0.53314
-0.474904
0.620788
-0.737846
0.717111
-1.02051
0.831309
-1.33089
0.864689
-1.56038
0.730934
-1.66504
0.471631
-1.72538
0.256939
-1.74753
0.165115
-1.81879
0.318593
-1.95036
0.618805
-2.12293
0.759433
-2.34978
0.628563
-2.43255
0.31218
-2.61107
0.333223
-3.12367
0.798099
-3.62688
1.1886
-4.12406
1.1529
-4.62213
1.01809
-5.1878
1.27203
-5.63407
1.0645
-5.84255
0.624905
-6.10333
0.650727
-6.91125
1.61303
-7.97778
2.31394
-8.49761
1.73964
-8.31379
0.193116
-7.83374
-0.969657
-7.35059
-1.22341
-6.99629
-1.00866
-6.72945
-0.631432
-6.49645
-0.466225
-6.28396
-0.448408
-6.06472
-0.513444
-5.92325
-0.625254
-5.55076
-0.941618
-5.07167
-1.12791
-4.70265
-1.35071
-4.24796
-1.55116
-3.6644
-1.28442
-3.25446
-0.856172
-3.05908
-0.561077
-2.69142
-0.60998
-2.39378
-0.402989
-2.2076
-0.235075
-2.09493
-0.311254
-2.03604
-0.501786
-1.89118
-0.700904
-1.65256
-0.770031
-1.36972
-0.759486
-1.21671
-0.701997
-1.02784
-0.61142
-0.825518
-0.539843
-0.636131
-0.49011
-0.465878
-0.426425
-0.357472
-0.310057
-0.303108
-0.186035
-0.215783
-0.11685
-0.173837
-0.0789968
-0.249513
0.0424779
-0.240929
-0.00232963
-0.231229
-0.00727961
-0.2127
-0.0165624
-0.187591
-0.0779022
-0.104151
-0.187242
0.0766263
-0.368247
0.240771
-0.43047
0.393663
-0.432424
0.567997
-0.352653
0.682755
-0.231037
0.750488
-0.121861
0.773364
-0.0409785
0.763346
0.0316139
0.763237
0.0141018
0.774311
-0.0793069
0.893683
-0.23514
1.01964
-0.319965
1.14677
-0.322226
1.24875
-0.256663
1.33384
-0.206644
1.42441
-0.174852
1.46075
-0.118914
1.4641
-0.022025
1.45582
0.103657
1.40693
0.204666
1.25643
0.276162
1.16041
0.19635
1.11948
0.133247
1.02227
0.160056
0.912521
0.147721
0.739306
0.219379
0.627765
0.14619
-0.0710045
0.148795
-0.50454
0.225609
-0.141134
0.313645
-0.0789706
0.368447
-0.0694093
0.384096
0.0367066
0.31453
0.274749
0.140839
0.567522
-0.0877076
0.761743
-0.319179
0.852317
-0.572593
0.97058
-0.854288
1.11306
-1.15285
1.1633
-1.3743
0.952431
-1.46103
0.558394
-1.52135
0.31729
-1.59784
0.241637
-1.67737
0.398144
-1.80452
0.74598
-1.90744
0.862364
-2.00087
0.722003
-2.2036
0.514919
-2.58854
0.718172
-3.23424
1.4438
-3.82638
1.78074
-4.41446
1.74099
-5.24091
1.84454
-5.81313
1.84425
-6.0209
1.27227
-6.1523
0.756302
-6.56787
1.06629
-7.54901
2.59416
-8.61736
3.38228
-8.87449
1.99676
-8.31279
-0.368593
-7.61027
-1.6722
-7.10832
-1.72537
-6.94078
-1.17621
-6.63476
-0.937461
-6.21229
-0.888701
-5.92354
-0.737172
-5.73312
-0.703871
-5.3963
-0.96209
-5.04948
-1.28844
-4.68289
-1.4945
-4.31222
-1.72139
-3.83877
-2.02462
-3.28702
-1.83618
-2.93748
-1.20572
-2.7516
-0.746966
-2.52182
-0.839763
-2.13518
-0.789638
-1.94529
-0.424967
-1.84865
-0.407909
-1.79273
-0.557715
-1.65078
-0.842859
-1.39568
-1.02514
-1.29458
-0.86059
-1.2376
-0.758989
-1.02769
-0.821347
-0.722117
-0.845424
-0.531746
-0.680494
-0.39024
-0.567942
-0.293932
-0.406377
-0.192299
-0.287681
-0.0184886
-0.290674
-0.0538302
-0.0436681
-0.172265
0.1609
-0.206267
0.031659
-0.165755
-0.0478054
-0.118301
-0.0640303
-0.0652207
-0.130997
0.0512294
-0.303706
0.15361
-0.470644
0.3177
-0.594576
0.507902
-0.622642
0.647341
-0.492108
0.750563
-0.334273
0.844468
-0.215781
0.889825
-0.086349
0.873419
0.0480063
0.857109
0.0303988
0.91646
-0.138671
1.04032
-0.359017
1.14723
-0.426881
1.22639
-0.401404
1.31916
-0.349443
1.394
-0.281493
1.47722
-0.25808
1.56162
-0.203317
1.58358
-0.0439922
1.54785
0.139372
1.4874
0.26511
1.38607
0.377491
1.2703
0.312112
1.17447
0.229077
1.04963
0.284893
0.907476
0.289869
0.678749
0.448104
0.522612
0.302327
-0.051624
0.127379
-0.626888
0.208345
-0.222043
0.305201
-0.175777
0.403712
-0.16787
0.421879
0.01859
0.372546
0.324133
0.223599
0.716521
0.0150446
0.970349
-0.224109
1.09152
-0.51713
1.26365
-0.805327
1.4013
-1.11375
1.47176
-1.34737
1.18609
-1.45062
0.661676
-1.45045
0.317148
-1.41312
0.204339
-1.50418
0.489221
-1.60301
0.844831
-1.72546
0.98482
-1.87952
0.876077
-2.20141
0.836818
-2.79491
1.31168
-3.46326
2.11215
-4.10764
2.42514
-4.77334
2.40669
-5.57508
2.64628
-6.15481
2.42398
-6.40285
1.52031
-6.5413
0.894752
-7.28215
1.80713
-8.66821
3.98022
-9.44382
4.15788
-9.02508
1.57801
-7.95237
-1.44131
-7.20832
-2.41626
-6.79743
-2.13627
-6.4633
-1.51035
-6.20135
-1.19941
-6.07269
-1.01738
-6.01743
-0.792445
-5.55415
-1.16716
-5.00615
-1.5101
-4.59435
-1.70025
-4.21849
-1.87037
-3.84704
-2.09285
-3.25989
-2.61178
-2.61112
-2.48495
-2.33377
-1.48307
-2.27183
-0.808923
-2.17964
-0.931958
-2.06508
-0.904203
-1.83002
-0.660037
-1.64623
-0.591702
-1.5567
-0.647249
-1.48462
-0.914951
-1.43071
-1.07907
-1.32776
-0.963548
-1.14556
-0.941192
-0.979065
-0.987856
-0.749508
-1.07499
-0.480894
-0.949119
-0.364
-0.684847
-0.228737
-0.541652
-0.0419816
-0.474447
-0.0154979
-0.317169
-0.0883067
0.0291296
-0.0851929
0.157775
-0.092445
0.0388991
-0.0806394
-0.0596232
-0.0365585
-0.108123
0.0217251
-0.189293
0.115665
-0.397659
0.226229
-0.581222
0.349398
-0.717758
0.498497
-0.771757
0.625447
-0.619073
0.722568
-0.431406
0.794784
-0.28801
0.827068
-0.118645
0.839154
0.0359084
0.867011
0.00253108
0.97063
-0.242302
1.01451
-0.402908
1.03538
-0.447758
1.13011
-0.49615
1.22583
-0.445172
1.32993
-0.385599
1.39573
-0.323896
1.46609
-0.273676
1.51474
-0.0926518
1.5071
0.147003
1.46539
0.306813
1.38465
0.458227
1.27613
0.420628
1.14912
0.356087
1.02792
0.406086
0.856271
0.461518
0.555754
0.748619
0.376636
0.481443
-0.0664941
0.105205
-0.727064
0.197624
-0.314409
0.30129
-0.279396
0.375317
-0.241848
0.400541
-0.00658641
0.36333
0.361391
0.248537
0.831361
0.0705438
1.14839
-0.208202
1.37031
-0.510893
1.56639
-0.812781
1.70323
-1.12728
1.7863
-1.3613
1.42015
-1.39602
0.696427
-1.31987
0.241028
-1.34211
0.226601
-1.40361
0.550744
-1.4409
0.882136
-1.56237
1.1063
-1.902
1.21572
-2.40227
1.33709
-2.97496
1.88438
-3.59169
2.72889
-4.30879
3.14223
-5.24165
3.33956
-6.2115
3.61613
-6.66666
2.87914
-6.88111
1.73476
-7.35161
1.36525
-8.83506
3.29057
-10.6421
5.78724
-10.2759
3.79166
-8.6184
-0.0794824
-7.41958
-2.64014
-6.73431
-3.10154
-6.35442
-2.51617
-6.05201
-1.81277
-5.89462
-1.35682
-5.81078
-1.10122
-5.35693
-1.24631
-4.86047
-1.66362
-4.43385
-1.93674
-4.07113
-2.06298
-3.70788
-2.23363
-3.2588
-2.54195
-2.87265
-2.99794
-2.31954
-3.03808
-1.972
-1.83061
-1.89163
-0.889302
-1.86194
-0.961652
-1.79272
-0.973431
-1.57848
-0.874289
-1.41443
-0.755749
-1.303
-0.758692
-1.26563
-0.952331
-1.17291
-1.17179
-1.00547
-1.131
-0.939455
-1.00722
-0.84869
-1.07863
-0.708015
-1.21568
-0.544432
-1.11271
-0.391776
-0.837512
-0.243396
-0.690042
-0.133973
-0.58388
-0.150319
-0.300834
-0.155189
0.0339899
-0.124315
0.126891
-0.055951
-0.029476
-0.0147805
-0.100804
0.0406999
-0.163615
0.12019
-0.268795
0.145196
-0.422677
0.229282
-0.665321
0.361112
-0.849602
0.432125
-0.842783
0.513065
-0.700026
0.582821
-0.501174
0.646134
-0.351334
0.690479
-0.163
0.729166
-0.00278854
0.76631
-0.0346238
0.772106
-0.248108
0.827852
-0.458664
0.871691
-0.491607
0.8579
-0.482369
0.963033
-0.550313
1.16614
-0.588716
1.21316
-0.37092
1.22875
-0.289275
1.27845
-0.14236
1.33162
0.093832
1.32692
0.311507
1.2563
0.528835
1.19866
0.478268
1.07685
0.477893
0.949001
0.533933
0.726598
0.683918
0.380928
1.09429
0.192865
0.669505
-0.0186074
0.0809836
-0.803021
0.171523
-0.404899
0.262288
-0.370118
0.317692
-0.297206
0.311843
-0.000692881
0.283267
0.390011
0.220775
0.893894
0.0299832
1.33922
-0.245184
1.64553
-0.553069
1.87432
-0.909674
2.05988
-1.18427
2.06094
-1.33226
1.56817
-1.358
0.722197
-1.30349
0.186544
-1.27745
0.200576
-1.34713
0.620442
-1.4553
0.990329
-1.62243
1.27344
-2.01325
1.60655
-2.66537
1.98921
-3.50815
2.72717
-4.27547
3.49621
-5.03826
3.90503
-6.04254
4.34385
-6.78543
4.35902
-7.07906
3.17277
-7.50235
2.15805
-8.55513
2.41802
-11.0839
5.81929
-12.2942
6.99753
-10.0984
1.59595
-7.8335
-2.34444
-6.72249
-3.75116
-6.23932
-3.58472
-5.81112
-2.94438
-5.43989
-2.18401
-5.33852
-1.4582
-5.2071
-1.23265
-4.7194
-1.73403
-4.17617
-2.20686
-3.81221
-2.3007
-3.42864
-2.44657
-3.1456
-2.51667
-2.94456
-2.743
-2.51273
-3.42977
-1.88319
-3.66763
-1.53932
-2.17449
-1.47484
-0.953789
-1.52511
-0.911393
-1.51359
-0.984958
-1.41522
-0.972669
-1.2677
-0.90327
-1.13838
-0.888023
-1.09686
-0.99385
-1.02341
-1.24524
-0.926312
-1.22811
-0.834956
-1.09858
-0.763724
-1.14987
-0.676713
-1.3027
-0.614509
-1.17493
-0.449471
-1.00256
-0.305247
-0.834275
-0.198036
-0.691101
-0.131905
-0.366974
-0.0621311
-0.0357928
0.0425179
0.0222322
0.0347105
-0.0216782
0.0418463
-0.10795
0.082963
-0.204741
0.132028
-0.317871
0.182334
-0.472995
0.19836
-0.681358
0.217796
-0.869052
0.28075
-0.90575
0.326147
-0.745435
0.369748
-0.544785
0.413285
-0.394882
0.478348
-0.228073
0.562166
-0.0866158
0.585566
-0.0580324
0.557086
-0.219638
0.507247
-0.408836
0.478978
-0.463347
0.490865
-0.494264
0.536803
-0.596258
0.684878
-0.736798
0.88304
-0.569088
0.938677
-0.344918
1.00519
-0.208873
1.07343
0.0255861
1.14269
0.242241
1.19276
0.478757
1.08227
0.588755
0.964253
0.59591
0.804691
0.693492
0.504465
0.984142
0.197303
1.40145
0.0451284
0.82168
0.0164265
0.0380384
-0.836034
0.130895
-0.497712
0.221314
-0.460495
0.235796
-0.311645
0.202584
0.0325607
0.144634
0.448001
0.0663101
0.972258
-0.0869216
1.4925
-0.319328
1.87798
-0.628394
2.18343
-0.96199
2.39352
-1.19335
2.29233
-1.33124
1.70609
-1.36664
0.757625
-1.27582
0.0957392
-1.23344
0.158218
-1.28452
0.671537
-1.42537
1.1312
-1.70106
1.54913
-2.2132
2.11871
-2.93504
2.71106
-3.81205
3.60419
-4.92299
4.60715
-5.96605
4.9481
-6.88394
5.26174
-7.33713
4.81222
-7.57309
3.40873
-8.39946
2.98441
-10.0745
4.09303
-11.8718
7.61661
-10.9548
6.08048
-8.26777
-1.09106
-6.76348
-3.84874
-6.10587
-4.40878
-5.74911
-3.94149
-5.38113
-3.31237
-5.14102
-2.42414
-4.98449
-1.61474
-4.52879
-1.68836
-3.98254
-2.2803
-3.47869
-2.71072
-3.00193
-2.77747
-2.78748
-2.66103
-2.69278
-2.61138
-2.41759
-3.0182
-2.04361
-3.80376
-1.54113
-4.17011
-1.15356
-2.56208
-1.073
-1.03435
-1.07161
-0.912793
-1.17192
-0.884646
-1.21363
-0.930964
-1.12265
-0.994261
-1.07986
-0.93082
-1.08203
-0.991682
-0.975294
-1.35199
-0.869542
-1.33387
-0.760246
-1.20788
-0.709642
-1.20048
-0.728801
-1.28354
-0.596585
-1.30715
-0.454386
-1.14477
-0.327248
-0.961423
-0.215834
-0.802523
-0.124163
-0.458654
-0.039973
-0.119991
0.037264
-0.0550134
0.0660881
-0.0505109
0.0729375
-0.114808
0.0943321
-0.226145
0.127575
-0.351123
0.139503
-0.484932
0.0757025
-0.61757
0.0730224
-0.866384
0.0854696
-0.91821
0.100319
-0.760295
0.121155
-0.565631
0.156099
-0.429835
0.214871
-0.286853
0.283048
-0.154802
0.339898
-0.114891
0.267877
-0.147625
0.169655
-0.310622
0.111024
-0.404723
0.052735
-0.435982
0.111892
-0.655421
0.232751
-0.857663
0.415367
-0.751711
0.562494
-0.492051
0.602467
-0.248852
0.744422
-0.116374
0.911316
0.0753425
0.922797
0.467272
0.882946
0.628603
0.78196
0.696894
0.564803
0.910646
0.336462
1.21248
0.120705
1.6172
-0.0197092
0.962093
0.06495
-0.010942
-0.82007
0.0871762
-0.59579
0.166866
-0.540145
0.151014
-0.295751
0.0720219
0.111592
0.00512567
0.514935
-0.0718926
1.04932
-0.219213
1.63986
-0.430066
2.08888
-0.716664
2.47007
-1.0537
2.7306
-1.27235
2.51101
-1.3158
1.74957
-1.31003
0.751881
-1.25165
0.0373698
-1.18045
0.0870383
-1.24008
0.731179
-1.42411
1.31524
-1.81643
1.94146
-2.43006
2.73235
-3.26663
3.54764
-4.38265
4.72022
-5.7298
5.9543
-7.01978
6.2381
-7.60905
5.85102
-7.70089
4.90406
-8.07431
3.78215
-8.84763
3.75774
-10.4979
5.74326
-11.1353
8.25402
-9.13989
4.08507
-7.18107
-3.04989
-6.24704
-4.78278
-5.67355
-4.98227
-5.24697
-4.36808
-4.98813
-3.57123
-4.76075
-2.65152
-4.36128
-2.01422
-3.87713
-2.17252
-3.41684
-2.74059
-2.98453
-3.14304
-2.72491
-3.0371
-2.53685
-2.8491
-2.20763
-2.94062
-1.91185
-3.31399
-1.57804
-4.13758
-1.1352
-4.61296
-0.771935
-2.92535
-0.693222
-1.11307
-0.770309
-0.835713
-0.875835
-0.779126
-0.96978
-0.837024
-0.93349
-1.03056
-0.968355
-0.895961
-0.93924
-1.0208
-0.877748
-1.41349
-0.801534
-1.41009
-0.714235
-1.29519
-0.644787
-1.26994
-0.595751
-1.33259
-0.52695
-1.37596
-0.428851
-1.24287
-0.331783
-1.0585
-0.234013
-0.900301
-0.125815
-0.56686
0.00249885
-0.248312
0.0456399
-0.0981624
0.0847008
-0.0895796
0.0862319
-0.116347
0.0484973
-0.188418
0.0601877
-0.362822
0.0788306
-0.503584
0.0149013
-0.553651
-0.081975
-0.769519
-0.0975457
-0.902649
-0.124125
-0.733725
-0.12318
-0.566584
-0.112722
-0.440302
-0.0772646
-0.322319
-0.0314076
-0.200667
-0.0521698
-0.0941362
-0.104985
-0.0948181
-0.285318
-0.130296
-0.455962
-0.234086
-0.440503
-0.451447
-0.368631
-0.727299
-0.295482
-0.930818
-0.0712266
-0.975972
0.141264
-0.704547
0.256956
-0.364549
0.386446
-0.245868
0.502709
-0.0409244
0.617749
0.352229
0.629915
0.616434
0.500608
0.826198
0.331752
1.0795
0.145964
1.39827
-0.0293452
1.79251
-0.10377
1.03652
0.0715404
-0.0106867
-0.804363
0.0598869
-0.666325
0.0908575
-0.571076
0.0259109
-0.230766
-0.0714259
0.208966
-0.152507
0.596051
-0.234996
1.13184
-0.356256
1.76117
-0.542361
2.27503
-0.833669
2.76142
-1.14301
3.03998
-1.34689
2.71491
-1.36538
1.76808
-1.25067
0.637198
-1.15999
-0.053293
-1.13645
0.0635074
-1.21352
0.808263
-1.50589
1.60762
-2.04252
2.4781
-2.76533
3.45517
-3.82657
4.60889
-5.58357
6.47722
-7.01138
7.38212
-7.62004
6.84677
-7.63578
5.86676
-7.26107
4.52936
-7.38442
3.90549
-8.39329
4.7666
-9.89913
7.24909
-9.06685
7.42174
-6.49191
1.51012
-5.4589
-4.08292
-5.24325
-4.99843
-5.10891
-5.11662
-4.93907
-4.53793
-4.76127
-3.74904
-4.40936
-3.00345
-3.91421
-2.50938
-3.39107
-2.69568
-3.00119
-3.13049
-2.72021
-3.42402
-2.41485
-3.34247
-2.0353
-3.22865
-1.76198
-3.21395
-1.53608
-3.5399
-1.27571
-4.39796
-0.883917
-5.00476
-0.463057
-3.34621
-0.438652
-1.13749
-0.565326
-0.709044
-0.653873
-0.690585
-0.681954
-0.808948
-0.726282
-0.986235
-0.751504
-0.870744
-0.762817
-1.00949
-0.749686
-1.42663
-0.708015
-1.45176
-0.648438
-1.35477
-0.593167
-1.32521
-0.539517
-1.38624
-0.467297
-1.44818
-0.396333
-1.31384
-0.317935
-1.1369
-0.250662
-0.967581
-0.15431
-0.663218
-0.0598869
-0.342743
0.00907416
-0.16713
0.0589361
-0.139449
0.0782776
-0.135696
0.0718377
-0.181985
0.0550165
-0.346008
-0.0130617
-0.435514
-0.0593059
-0.507415
-0.11911
-0.709725
-0.245812
-0.775957
-0.335145
-0.6444
-0.378505
-0.523232
-0.396339
-0.422476
-0.390579
-0.328086
-0.386501
-0.204752
-0.451638
-0.029006
-0.587949
0.0414858
-0.781825
0.0635732
-0.936691
-0.0792258
-0.971468
-0.416675
-0.877664
-0.821108
-0.729171
-1.07932
-0.585728
-1.11942
-0.328693
-0.961587
-0.0467933
-0.646453
0.136026
-0.428692
0.214117
-0.119019
0.316025
0.250317
0.348769
0.583688
0.254896
0.920069
0.15472
1.17967
-0.0213883
1.57437
-0.143398
1.91452
-0.147792
1.04091
0.092221
0.0057864
-0.80513
0.0359761
-0.696479
-0.00216368
-0.5329
-0.136044
-0.0968486
-0.252443
0.325399
-0.315523
0.659165
-0.378994
1.19535
-0.487949
1.87017
-0.677622
2.46475
-0.951581
3.03542
-1.22786
3.31629
-1.36769
2.85476
-1.36909
1.7695
-1.27477
0.542889
-1.10959
-0.218453
-1.04291
-0.00316219
-1.22235
0.98771
-1.63757
2.02286
-2.241
3.08153
-3.19777
4.41195
-4.84556
6.25668
-6.5143
8.14597
-7.39779
8.26562
-7.33629
6.78528
-6.60162
5.13209
-6.26015
4.18788
-6.67465
4.32
-7.69136
5.78331
-8.18121
7.73894
-6.55165
5.79216
-4.54229
-0.499243
-3.98756
-4.63766
-3.84204
-5.14395
-3.84223
-5.11645
-3.98724
-4.39293
-4.06358
-3.67271
-3.75933
-3.30771
-3.26997
-2.99875
-2.9231
-3.04255
-2.60312
-3.45048
-2.27183
-3.75532
-1.9101
-3.70421
-1.66728
-3.47148
-1.52721
-3.35402
-1.32014
-3.74698
-1.17041
-4.54769
-0.78755
-5.38763
-0.310448
-3.82332
-0.195339
-1.2526
-0.293495
-0.610894
-0.414749
-0.569337
-0.497645
-0.726058
-0.632539
-0.851345
-0.626947
-0.876342
-0.625962
-1.01049
-0.633909
-1.41868
-0.54369
-1.54199
-0.559496
-1.33897
-0.545332
-1.33938
-0.503596
-1.42799
-0.44448
-1.50731
-0.383835
-1.37449
-0.319905
-1.20084
-0.250266
-1.03723
-0.173915
-0.739575
-0.0962955
-0.420368
-0.0358817
-0.22755
0.027307
-0.202643
0.0563854
-0.16478
0.0544296
-0.180036
0.0200998
-0.311685
-0.0648609
-0.35056
-0.15409
-0.418194
-0.281038
-0.582786
-0.433754
-0.623248
-0.569147
-0.509014
-0.653917
-0.438468
-0.699452
-0.376948
-0.730434
-0.297111
-0.772516
-0.162677
-0.862974
0.0614461
-1.0346
0.21311
-1.25746
0.286426
-1.45556
0.118871
-1.52188
-0.350368
-1.43275
-0.910244
-1.24332
-1.26875
-0.993421
-1.36932
-0.798895
-1.15612
-0.52355
-0.921802
-0.243399
-0.708847
-0.071009
-0.291412
0.0236021
0.155702
0.0341883
0.573099
0.0297061
0.924549
-0.0462433
1.25562
-0.17314
1.70127
-0.227852
1.96923
-0.242598
1.05566
0.112293
0.00375354
-0.803866
0.00104313
-0.693735
-0.107109
-0.424714
-0.291882
0.0879576
-0.43252
0.466068
-0.500631
0.727308
-0.540301
1.23506
-0.629767
1.95967
-0.803897
2.63892
-1.04872
3.28027
-1.27363
3.54124
-1.36404
2.94519
-1.31666
1.72214
-1.19243
0.418673
-1.06679
-0.344086
-1.07906
0.00912532
-1.29617
1.20482
-1.74074
2.46745
-2.49589
3.83669
-3.76734
5.68341
-5.76945
8.25879
-7.00956
9.38609
-6.79644
8.05251
-5.95737
5.94622
-5.37722
4.55195
-5.43388
4.24454
-5.80025
4.68637
-6.27701
6.26007
-5.7759
7.23783
-4.04591
4.06217
-2.71978
-1.82538
-2.31234
-5.0451
-2.20563
-5.25067
-2.33377
-4.98832
-2.61537
-4.11133
-2.9894
-3.2987
-3.14143
-3.15568
-2.8923
-3.2479
-2.47011
-3.46474
-2.14919
-3.77141
-1.86443
-4.04009
-1.6045
-3.96414
-1.50633
-3.56967
-1.44549
-3.41487
-1.43448
-3.758
-1.30051
-4.68167
-0.887746
-5.80041
-0.423275
-4.2878
-0.163212
-1.51267
-0.169052
-0.605058
-0.248454
-0.48994
-0.356443
-0.618074
-0.461402
-0.746391
-0.487209
-0.850539
-0.499353
-0.998345
-0.525908
-1.39213
-0.573667
-1.49423
-0.542089
-1.37055
-0.529994
-1.35148
-0.492274
-1.46571
-0.442268
-1.55732
-0.399436
-1.41733
-0.337912
-1.26237
-0.268915
-1.10623
-0.196435
-0.812061
-0.13296
-0.483848
-0.0682042
-0.292312
-0.0194837
-0.251369
0.0113976
-0.195667
0.00939696
-0.17804
-0.0543483
-0.247945
-0.139999
-0.264915
-0.212333
-0.345866
-0.400902
-0.394224
-0.6622
-0.361956
-0.848476
-0.322744
-0.961154
-0.325796
-1.03412
-0.303992
-1.09366
-0.237575
-1.18095
-0.0753909
-1.2754
0.155894
-1.4633
0.400999
-1.72021
0.543332
-2.00002
0.398681
-2.12978
-0.220617
-1.97163
-1.06839
-1.73996
-1.50043
-1.5386
-1.57069
-1.22724
-1.46748
-0.882974
-1.26607
-0.659022
-0.932802
-0.467881
-0.482557
-0.316651
0.00446969
-0.246147
0.502593
-0.228765
0.907165
-0.271554
1.29841
-0.327682
1.7574
-0.306609
1.94816
-0.291501
1.04055
0.156258
-0.00806884
-0.79078
-0.0538299
-0.647943
-0.218524
-0.25999
-0.430713
0.300175
-0.587529
0.622912
-0.670299
0.810107
-0.706475
1.27127
-0.784284
2.03752
-0.950804
2.80547
-1.15559
3.48508
-1.29864
3.68431
-1.34593
2.9925
-1.30687
1.68309
-1.14449
0.256302
-0.979918
-0.508643
-1.08695
0.116168
-1.43829
1.55617
-1.99724
3.02641
-2.90562
4.74509
-4.41524
7.19303
-5.89395
9.73751
-6.22164
9.71379
-5.51819
7.34907
-4.76843
5.19646
-4.54933
4.33285
-4.57289
4.2681
-4.64826
4.76174
-4.54516
6.15697
-3.65036
6.34303
-2.21134
2.62314
-1.33909
-2.69763
-1.13454
-5.24965
-0.981279
-5.40395
-1.03064
-4.93896
-1.44475
-3.69723
-1.94525
-2.79821
-2.25929
-2.84165
-2.29481
-3.21238
-2.10061
-3.65895
-1.83973
-4.0323
-1.64112
-4.23871
-1.51186
-4.09341
-1.39045
-3.69108
-1.38702
-3.4183
-1.42362
-3.72141
-1.39189
-4.7134
-1.1336
-6.05871
-0.527954
-4.89345
-0.0892572
-1.95137
-0.0733939
-0.620926
-0.202348
-0.36099
-0.275385
-0.545041
-0.34455
-0.67723
-0.362603
-0.83249
-0.377261
-0.983691
-0.509591
-1.25981
-0.538222
-1.46561
-0.537926
-1.37085
-0.536939
-1.35248
-0.494496
-1.50816
-0.530417
-1.5214
-0.471334
-1.47642
-0.397943
-1.33577
-0.311132
-1.19304
-0.234733
-0.888464
-0.190004
-0.528581
-0.102108
-0.380212
-0.0847164
-0.268765
-0.0615081
-0.218879
-0.0808111
-0.158742
-0.206601
-0.122159
-0.287886
-0.183636
-0.441014
-0.192743
-0.730681
-0.104562
-0.968884
-0.123759
-1.16429
-0.127347
-1.29531
-0.194779
-1.38236
-0.216946
-1.47265
-0.147287
-1.54959
0.00153663
-1.73625
0.342554
-2.03082
0.695566
-2.32878
0.841286
-2.54102
0.610919
-2.52164
-0.240005
-2.37469
-1.21534
-2.18912
-1.686
-1.87868
-1.88113
-1.54952
-1.79664
-1.32081
-1.49478
-1.07046
-1.18316
-0.842372
-0.710644
-0.667411
-0.170493
-0.54558
0.380759
-0.507181
0.868765
-0.514923
1.30615
-0.486447
1.72892
-0.346877
1.80858
-0.320868
1.01454
0.259712
-0.0428544
-0.742911
-0.138593
-0.552179
-0.347053
-0.0515039
-0.564831
0.517978
-0.733757
0.791862
-0.836435
0.912812
-0.868996
1.30386
-0.937525
2.10607
-1.08776
2.95573
-1.21732
3.61467
-1.31589
3.7829
-1.31496
2.99158
-1.21126
1.57941
-1.08473
0.129775
-0.985408
-0.607952
-1.10177
0.232542
-1.54496
1.99937
-2.28201
3.76347
-3.42952
5.89261
-5.09428
8.8578
-5.72468
10.3679
-5.02141
9.01052
-4.25042
6.57808
-3.83722
4.78327
-3.68141
4.17704
-3.55054
4.13724
-3.3818
4.59299
-2.9806
5.75577
-1.8772
5.23963
-0.78478
1.53071
-0.278262
-3.20415
-0.0582833
-5.46964
0.103988
-5.56622
0.0382022
-4.87318
-0.291101
-3.36793
-0.835357
-2.25397
-1.32352
-2.3535
-1.51912
-3.01679
-1.57957
-3.59851
-1.52569
-4.08618
-1.3846
-4.37981
-1.28869
-4.18932
-1.29015
-3.68964
-1.35088
-3.35758
-1.44175
-3.63055
-1.4732
-4.68196
-1.19811
-6.33379
-0.545426
-5.54615
-0.0995957
-2.39721
-0.0414636
-0.679062
-0.117279
-0.285179
-0.215204
-0.44712
-0.222352
-0.670085
-0.265204
-0.789642
-0.354176
-0.894723
-0.414787
-1.1992
-0.46744
-1.41296
-0.514851
-1.32345
-0.476821
-1.39051
-0.498846
-1.48614
-0.519917
-1.50033
-0.505174
-1.49116
-0.459305
-1.38164
-0.369126
-1.28323
-0.313281
-0.944313
-0.271086
-0.57078
-0.263588
-0.387715
-0.195598
-0.336759
-0.167175
-0.247306
-0.248606
-0.0773147
-0.33186
-0.0389082
-0.472971
-0.0425291
-0.674156
0.00843763
-0.935936
0.157213
-1.28499
0.225292
-1.51478
0.102439
-1.66357
-0.0459967
-1.75816
-0.122357
-1.86757
-0.0378837
-2.01378
0.147741
-2.2135
0.542271
-2.49004
0.9721
-2.78811
1.13935
-2.92421
0.747016
-2.85808
-0.306136
-2.72404
-1.34939
-2.46876
-1.94128
-2.21289
-2.137
-1.98496
-2.02458
-1.67355
-1.80619
-1.38586
-1.47085
-1.1547
-0.941813
-0.963293
-0.3619
-0.838735
0.2562
-0.77988
0.809908
-0.757512
1.28378
-0.681034
1.65244
-0.526544
1.65409
-0.45746
0.945454
0.371277
-0.07951
-0.658387
-0.235577
-0.396089
-0.457616
0.170557
-0.681601
0.741983
-0.859897
0.970179
-0.975816
1.02875
-1.01912
1.34718
-1.07815
2.16513
-1.20295
3.08056
-1.29702
3.70875
-1.31449
3.80038
-1.26167
2.93878
-1.13792
1.45567
-0.987096
-0.0210433
-0.906106
-0.688933
-1.11992
0.446362
-1.71341
2.59288
-2.57576
4.62582
-3.90345
7.22031
-4.93972
9.89407
-4.69394
10.1222
-3.90804
8.22463
-3.376
6.04604
-3.12477
4.53204
-2.74284
3.79511
-2.37611
3.77051
-2.01362
4.23051
-1.50878
5.25092
-0.574921
4.30577
0.287919
0.667868
0.562366
-3.4786
0.729661
-5.63694
0.940007
-5.77657
0.918246
-4.85143
0.621447
-3.07114
0.104935
-1.73746
-0.402039
-1.84654
-0.694662
-2.72417
-0.855447
-3.43773
-0.973458
-3.96817
-0.998922
-4.35435
-1.06343
-4.12482
-1.18805
-3.56502
-1.32749
-3.21814
-1.46253
-3.49551
-1.62174
-4.52275
-1.38194
-6.5736
-0.639328
-6.28877
-0.140222
-2.89632
-0.0259888
-0.793298
-0.091564
-0.219607
-0.144275
-0.394412
-0.217081
-0.597282
-0.243793
-0.762933
-0.236498
-0.90202
-0.343475
-1.09222
-0.412678
-1.34376
-0.400133
-1.33599
-0.467071
-1.32357
-0.508318
-1.44489
-0.521636
-1.48702
-0.532837
-1.47996
-0.449322
-1.46516
-0.433936
-1.29861
-0.414739
-0.963513
-0.322291
-0.663231
-0.287369
-0.422639
-0.299847
-0.324284
-0.303268
-0.243888
-0.378585
-0.00200103
-0.54797
0.130474
-0.684607
0.094105
-0.914436
0.238263
-1.21412
0.456889
-1.54856
0.559728
-1.90693
0.46081
-2.09645
0.143521
-2.13859
-0.0802238
-2.23178
0.0553108
-2.44216
0.358117
-2.66222
0.762328
-2.9085
1.21837
-3.16293
1.39379
-3.23967
0.82375
-3.10987
-0.435944
-2.83408
-1.62517
-2.62662
-2.14875
-2.47311
-2.29051
-2.19336
-2.30433
-1.89686
-2.10271
-1.66889
-1.69882
-1.39076
-1.21994
-1.16151
-0.591152
-1.0792
0.173885
-1.04218
0.772887
-1.01558
1.25718
-0.895586
1.53245
-0.650653
1.40916
-0.552508
0.847308
0.462244
-0.0979579
-0.555418
-0.323491
-0.170537
-0.566991
0.414075
-0.788884
0.963892
-0.960658
1.14197
-1.09734
1.16546
-1.17104
1.4209
-1.21231
2.20642
-1.27324
3.14151
-1.32756
3.76309
-1.31195
3.78477
-1.16176
2.78859
-0.991386
1.28531
-0.855995
-0.156426
-0.853689
-0.691233
-1.23951
0.832193
-1.95632
3.30969
-2.95727
5.62678
-4.2565
8.51954
-4.47375
10.1113
-3.6809
9.32932
-2.98927
7.53301
-2.51032
5.5671
-2.23166
4.25338
-1.7573
3.32075
-1.15698
3.17018
-0.815157
3.88869
-0.355187
4.79095
0.401787
3.5488
0.958455
0.111197
1.04132
-3.56148
0.999589
-5.59521
1.24577
-6.02275
1.39525
-5.00092
1.14425
-2.82015
0.630186
-1.22339
0.193345
-1.4097
-0.0347093
-2.49612
-0.21357
-3.25888
-0.437941
-3.74381
-0.714348
-4.07795
-0.952317
-3.88685
-1.13829
-3.37905
-1.3083
-3.04814
-1.52476
-3.27905
-1.81504
-4.23248
-1.63777
-6.75088
-0.816911
-7.10963
-0.23134
-3.48189
-0.0615516
-0.963089
-0.040352
-0.240809
-0.149455
-0.285311
-0.255913
-0.490827
-0.295448
-0.7234
-0.293134
-0.904337
-0.288666
-1.0967
-0.392845
-1.23958
-0.460416
-1.26843
-0.459422
-1.32457
-0.532327
-1.37199
-0.588795
-1.43055
-0.559382
-1.50938
-0.536703
-1.48784
-0.577683
-1.25764
-0.544107
-0.99709
-0.481824
-0.725516
-0.450181
-0.454284
-0.472778
-0.30169
-0.554856
-0.161813
-0.579929
0.0230699
-0.621903
0.172446
-0.850855
0.323055
-1.15933
0.546737
-1.50773
0.805287
-1.93959
0.991584
-2.31519
0.836407
-2.50741
0.335734
-2.5844
-0.0032315
-2.64899
0.119901
-2.79279
0.501916
-3.02438
0.99391
-3.2273
1.42129
-3.42597
1.59246
-3.40444
0.802214
-3.19968
-0.640708
-2.94897
-1.87588
-2.72717