/*--------------------------------*- C++ -*----------------------------------*\
| =========                 |                                                 |
| \\      /  F ield         | foam-extend: Open Source CFD                    |
|  \\    /   O peration     | Version:     5.0                                |
|   \\  /    A nd           | Web:         http://www.foam-extend.org         |
|    \\/     M anipulation  |                                                 |
\*---------------------------------------------------------------------------*/
FoamFile
{
    version     2.0;
    format      ascii;
    class       volVectorField;
    location    "0.07";
    object      U;
}
// * * * * * * * * * * * * * * * * * * * * * * * * * * * * * * * * * * * * * //

dimensions      [0 1 -1 0 0 0 0];

internalField   nonuniform List<vector> 
4000
(
(9.13913 -1.78206 0)
(15.2368 0.683682 0)
(12.0023 1.18584 0)
(6.28912 0.686711 0)
(5.03659 0.612793 0)
(0.0276817 1.14914 0)
(-10.7445 1.84302 0)
(-27.5924 2.68445 0)
(-49.5629 3.63541 0)
(-77.1215 4.3052 0)
(-110.933 5.6739 0)
(-152.17 7.08993 0)
(-201.897 6.73486 0)
(-246.457 5.36062 0)
(-278.492 2.88357 0)
(-289.869 2.31537 0)
(-323.259 7.32397 0)
(-377.575 9.35082 0)
(-444.935 8.43713 0)
(-484.691 3.29106 0)
(-567.014 6.36578 0)
(-564.583 1.15833 0)
(-594.687 -2.37485 0)
(-573.681 7.17676 0)
(-667.66 7.6039 0)
(-677.271 9.22695 0)
(-766.421 6.06833 0)
(-778.702 9.52102 0)
(-777.195 2.13226 0)
(-816.53 10.35 0)
(-882.67 10.0742 0)
(-917.549 6.65501 0)
(-1029.07 8.29779 0)
(-1130.43 0.590783 0)
(-1129.78 -7.17795 0)
(-1062.56 -9.61137 0)
(-1025.23 -4.11672 0)
(-1023.66 -9.09754 0)
(-957.386 -7.65642 0)
(-975.132 -4.06441 0)
(-919.187 -3.34601 0)
(-931.05 -3.79002 0)
(-918.985 -8.89882 0)
(-809.977 -2.87746 0)
(-768.948 -7.93571 0)
(-640.544 -3.18248 0)
(-591.167 0.749488 0)
(-577.336 -1.90261 0)
(-518.389 -4.16306 0)
(-529.237 -0.399845 0)
(-501.864 -0.367587 0)
(-522.375 -4.20012 0)
(-508.275 -9.50453 0)
(-431.124 -16.8952 0)
(-383.133 -13.7169 0)
(-294.136 -12.0358 0)
(-257.391 -7.73572 0)
(-201.89 -8.77424 0)
(-146.352 -4.91324 0)
(-131.002 -2.733 0)
(-92.4149 -2.70393 0)
(-82.6677 -2.01944 0)
(-58.1037 -1.67498 0)
(-53.5629 -1.63024 0)
(-37.8224 -0.768201 0)
(-44.4408 0.866776 0)
(-39.8934 -0.556689 0)
(-39.8006 -0.941811 0)
(-30.2398 -0.283907 0)
(-37.0122 -0.0714779 0)
(-32.5444 -0.717509 0)
(-24.4113 -1.16193 0)
(-17.8857 -1.47527 0)
(-3.1967 -1.98773 0)
(15.2903 -1.96027 0)
(29.0032 -1.22202 0)
(37.9372 -1.10112 0)
(45.671 -0.542148 0)
(45.1645 0.136306 0)
(45.6506 0.198059 0)
(40.8786 0.0745969 0)
(45.0546 -0.729521 0)
(49.0138 -0.949699 0)
(59.9116 -1.62963 0)
(76.2859 -1.82699 0)
(86.0032 -1.06562 0)
(94.8332 -0.848233 0)
(104.695 -0.722381 0)
(106.997 -0.777452 0)
(112.482 0.0790954 0)
(106.352 1.18064 0)
(99.606 1.72654 0)
(87.1953 0.48836 0)
(79.5723 0.735972 0)
(76.7806 0.870078 0)
(68.978 0.398781 0)
(66.4525 -0.229284 0)
(69.8961 -0.947871 0)
(70.5081 -0.0938005 0)
(75.4348 -0.729736 0)
(15.8889 -6.45835 0)
(30.9195 0.590004 0)
(34.1633 2.22974 0)
(27.6664 0.979432 0)
(27.7667 1.53125 0)
(16.3441 4.01808 0)
(-9.51922 6.88432 0)
(-41.8153 9.35407 0)
(-84.502 11.5314 0)
(-141.328 14.3555 0)
(-213.779 18.5425 0)
(-281.222 20.0847 0)
(-333.279 19.0342 0)
(-393.518 15.1295 0)
(-395.073 8.42332 0)
(-435.913 6.87803 0)
(-421.885 12.5152 0)
(-435.133 20.3818 0)
(-501.033 23.499 0)
(-556.325 19.7196 0)
(-541.754 11.067 0)
(-548.807 2.81788 0)
(-588.829 3.83907 0)
(-673.244 15.9847 0)
(-784.694 20.2707 0)
(-807.219 15.5181 0)
(-902.773 17.1976 0)
(-1019.78 11.1414 0)
(-1104.65 8.30533 0)
(-1161.53 12.4306 0)
(-1170.7 24.3687 0)
(-1339.2 36.0669 0)
(-1517.06 41.1031 0)
(-1657.64 20.2986 0)
(-1558.49 -12.564 0)
(-1518.14 -25.6447 0)
(-1391.37 -18.7943 0)
(-1290.25 -11.3174 0)
(-1298.83 -7.50975 0)
(-1241.74 -8.40554 0)
(-1246.42 -10.0232 0)
(-1165.59 -11.6314 0)
(-1065.04 -18.7833 0)
(-1040.76 -27.6052 0)
(-974.756 -37.5395 0)
(-805.647 -39.257 0)
(-726.134 -24.1701 0)
(-598.529 -11.0933 0)
(-590.007 -10.7237 0)
(-519.54 -4.53955 0)
(-504.089 2.35251 0)
(-472.887 3.05565 0)
(-494.416 -6.00013 0)
(-466.307 -17.62 0)
(-455.221 -22.2855 0)
(-389.414 -21.0305 0)
(-357.49 -17.8214 0)
(-289.811 -20.7037 0)
(-255.392 -15.9744 0)
(-190.353 -12.1078 0)
(-172.073 -10.667 0)
(-116.489 -8.96126 0)
(-110.664 -7.04672 0)
(-68.2477 -3.74459 0)
(-60.0281 -1.49005 0)
(-73.1353 -1.3671 0)
(-49.8827 -1.29228 0)
(-68.2448 -0.379047 0)
(-51.5705 -0.101 0)
(-69.5647 -0.310864 0)
(-63.3013 -1.83337 0)
(-52.1992 -3.21899 0)
(-31.1313 -6.07136 0)
(-4.76546 -8.50275 0)
(42.6638 -8.36677 0)
(74.7034 -5.45883 0)
(89.4333 -3.532 0)
(101.751 -1.31137 0)
(104.437 -0.160653 0)
(113.679 0.832517 0)
(99.9749 0.28174 0)
(111.522 -2.17919 0)
(115.705 -3.70079 0)
(140.832 -6.05932 0)
(172.775 -6.525 0)
(186.594 -4.89084 0)
(208.569 -3.53219 0)
(228.914 -2.83626 0)
(230.55 -2.65225 0)
(246.991 -0.246468 0)
(234.256 3.50288 0)
(225.772 5.46588 0)
(203.415 3.70934 0)
(177.971 3.16985 0)
(182.426 2.7354 0)
(164.205 1.09867 0)
(156.736 0.191969 0)
(146.039 -0.452303 0)
(130.067 -0.112417 0)
(132.813 -2.31331 0)
(15.0713 -14.1023 0)
(37.2369 -1.40113 0)
(50.1826 1.84265 0)
(51.1821 0.723873 0)
(60.019 2.58587 0)
(46.12 8.40466 0)
(28.7196 15.295 0)
(-22.5079 20.7638 0)
(-63.7168 24.9136 0)
(-125.848 29.9178 0)
(-173.654 35.3104 0)
(-235.901 35.9057 0)
(-292.822 31.4258 0)
(-331.378 21.7412 0)
(-328.995 12.4035 0)
(-360.691 8.44103 0)
(-343.781 14.11 0)
(-384.168 27.3766 0)
(-397.552 33.5135 0)
(-450.711 26.9209 0)
(-491.486 12.4552 0)
(-474.473 10.5334 0)
(-565.301 24.2667 0)
(-694.641 45.5784 0)
(-757.114 45.66 0)
(-883.551 35.926 0)
(-967.135 47.0234 0)
(-1115.73 44.025 0)
(-1137.56 28.2849 0)
(-1200.37 25.9182 0)
(-1251.83 57.0349 0)
(-1496.09 87.4215 0)
(-1677.18 76.7937 0)
(-1729.88 20.6199 0)
(-1597.76 -33.1795 0)
(-1534.69 -48.6633 0)
(-1412.61 -42.2279 0)
(-1391.63 -24.8579 0)
(-1299 -16.2146 0)
(-1295.44 -15.1436 0)
(-1217.04 -19.6078 0)
(-1206.28 -27.5249 0)
(-1165.96 -39.8498 0)
(-1050.32 -45.6638 0)
(-979.303 -55.9627 0)
(-898.856 -67.8622 0)
(-809.259 -48.8107 0)
(-659.527 -32.7131 0)
(-637.795 -23.2668 0)
(-590.103 -22.0601 0)
(-484.414 -13.33 0)
(-471.092 -7.54743 0)
(-411.864 -13.4796 0)
(-422.629 -23.4491 0)
(-392.326 -33.3729 0)
(-367.745 -32.9641 0)
(-292.314 -31.288 0)
(-252.264 -32.4038 0)
(-237.964 -26.6005 0)
(-173.337 -22.1388 0)
(-155.965 -19.2528 0)
(-97.7721 -16.966 0)
(-90.3539 -12.9972 0)
(-55.7037 -8.1324 0)
(-61.5267 -3.22785 0)
(-23.1807 -2.94412 0)
(-47.2776 -0.136006 0)
(-56.515 -0.254881 0)
(-38.3899 -0.308007 0)
(-51.5275 -0.256488 0)
(-36.6649 -3.19975 0)
(-38.1782 -7.07091 0)
(-0.469263 -13.7971 0)
(31.5564 -17.5252 0)
(65.4204 -18.0205 0)
(91.7604 -13.469 0)
(135.109 -8.75517 0)
(135.723 -4.28179 0)
(162.83 -1.29001 0)
(147.057 1.23278 0)
(158.569 0.703362 0)
(149.819 -3.44008 0)
(158.952 -8.98389 0)
(198.246 -13.0384 0)
(212.004 -12.8829 0)
(246.09 -10.6635 0)
(249.908 -8.04521 0)
(284.809 -6.30015 0)
(287.176 -4.97776 0)
(296.143 -1.04784 0)
(285.907 4.91527 0)
(294.677 8.87183 0)
(272.802 10.0106 0)
(225.989 7.0004 0)
(237.64 5.55213 0)
(216.48 5.52169 0)
(193.899 3.89459 0)
(171.725 6.03215 0)
(120.969 3.90285 0)
(128.973 -3.32543 0)
(11.8294 -21.6858 0)
(35.57 -5.04477 0)
(57.0975 -1.45696 0)
(71.8385 -1.8806 0)
(75.0517 2.50665 0)
(77.4711 12.164 0)
(46.7051 24.2459 0)
(9.26162 32.3743 0)
(-42.3773 36.5186 0)
(-84.8536 41.8046 0)
(-148.642 47.8327 0)
(-193.784 50.1977 0)
(-264.49 41.4024 0)
(-285.083 25.317 0)
(-293.747 14.0647 0)
(-314.463 9.54891 0)
(-329.821 17.8644 0)
(-341.995 34.6257 0)
(-380.972 41.193 0)
(-381.348 33.2258 0)
(-420.645 19.3385 0)
(-454.8 24.0636 0)
(-576.086 54.3723 0)
(-728.543 74.1246 0)
(-800.785 70.6464 0)
(-954.843 69.885 0)
(-1146.51 79.9793 0)
(-1185.91 60.3075 0)
(-1223.09 35.0815 0)
(-1238.25 40.3154 0)
(-1403.39 102.117 0)
(-1595.43 143.137 0)
(-1829.51 99.0336 0)
(-1731.51 0.330117 0)
(-1596.85 -65.9764 0)
(-1446.96 -73.0046 0)
(-1401.87 -54.4189 0)
(-1381.17 -39.9015 0)
(-1271.67 -35.1383 0)
(-1208.53 -30.9418 0)
(-1158.87 -28.3186 0)
(-1133.14 -37.2801 0)
(-1027.21 -53.7029 0)
(-989.926 -65.6651 0)
(-881.343 -78.3117 0)
(-843.336 -90.9851 0)
(-699.859 -75.7655 0)
(-618.542 -52.473 0)
(-553.448 -35.0689 0)
(-549.623 -36.7512 0)
(-457.447 -29.664 0)
(-395.312 -15.6224 0)
(-381.376 -17.7839 0)
(-355.739 -28.4129 0)
(-361.882 -37.5192 0)
(-301.799 -45.2006 0)
(-255.063 -41.4507 0)
(-260.118 -38.0308 0)
(-238.13 -35.4536 0)
(-173.492 -34.9511 0)
(-113.969 -29.316 0)
(-97.9034 -24.7713 0)
(-60.2098 -17.8695 0)
(-60.1017 -11.1775 0)
(-13.3097 -9.89988 0)
(7.79867 -3.70406 0)
(-30.9905 4.42382 0)
(-40.3052 1.31457 0)
(-41.7633 -1.4515 0)
(-22.1325 -2.01321 0)
(-27.7272 -4.93145 0)
(1.5096 -12.1843 0)
(22.2915 -21.3096 0)
(39.1758 -25.6215 0)
(88.4793 -26.799 0)
(114.861 -21.0078 0)
(143.598 -13.8678 0)
(154.079 -8.33425 0)
(182.352 -3.14941 0)
(174.003 2.16851 0)
(175.779 1.47486 0)
(170.041 -5.60318 0)
(195.691 -14.5877 0)
(220.044 -18.8291 0)
(241.071 -18.7542 0)
(248.668 -14.8889 0)
(276.24 -11.9563 0)
(282.391 -10.9277 0)
(310.161 -8.12224 0)
(313.776 -1.45293 0)
(316.264 6.56836 0)
(301.45 12.0128 0)
(297.218 16.4265 0)
(254.384 12.996 0)
(253.379 8.74559 0)
(221.608 10.6471 0)
(200.13 10.4226 0)
(163.869 15.7866 0)
(104.266 10.3068 0)
(101.956 -3.45441 0)
(1.94962 -28.6162 0)
(34.6141 -9.01802 0)
(52.3536 -6.3546 0)
(73.0995 -5.82258 0)
(88.0752 1.41552 0)
(79.3262 15.2959 0)
(67.7512 32.3723 0)
(21.717 43.7172 0)
(-13.3704 48.8364 0)
(-76.0905 55.8208 0)
(-135.349 63.2766 0)
(-187.031 66.8489 0)
(-256.462 54.3238 0)
(-281.111 31.8237 0)
(-294.785 16.9915 0)
(-285.202 12.0235 0)
(-284.2 21.77 0)
(-319.162 39.9503 0)
(-322.306 46.2461 0)
(-368.057 38.4414 0)
(-384.439 31.6691 0)
(-491.644 46.6402 0)
(-622.243 87.7799 0)
(-772.731 104.042 0)
(-867.093 103.268 0)
(-1033.99 110.08 0)
(-1199.9 108.531 0)
(-1270.77 70.312 0)
(-1291.94 40.2934 0)
(-1325.01 64.9211 0)
(-1608.3 155.135 0)
(-1831.46 195.156 0)
(-1918.94 105.022 0)
(-1707.87 -40.8174 0)
(-1474.81 -101.123 0)
(-1408.96 -98.5888 0)
(-1317.36 -67.9326 0)
(-1272.61 -53.1587 0)
(-1206.07 -47.6727 0)
(-1218.98 -37.4426 0)
(-1186.5 -46.0354 0)
(-1033.64 -61.8449 0)
(-969.654 -74.0537 0)
(-866.35 -81.85 0)
(-818.503 -94.2079 0)
(-720.562 -113.217 0)
(-590.441 -108.024 0)
(-458.539 -66.8074 0)
(-473.134 -38.1911 0)
(-436.949 -45.0256 0)
(-431.258 -43.2739 0)
(-396.826 -28.0043 0)
(-331.462 -23.2828 0)
(-325.63 -27.9864 0)
(-297.744 -44.8578 0)
(-298.02 -53.5481 0)
(-274.795 -46.1794 0)
(-253.469 -41.0275 0)
(-207.087 -46.599 0)
(-184.387 -47.9963 0)
(-115.716 -41.4901 0)
(-74.7828 -31.2335 0)
(-73.1709 -23.3755 0)
(-20.9797 -18.8938 0)
(8.58563 -16.0914 0)
(-14.1805 -0.670076 0)
(-23.4265 8.62554 0)
(-11.1234 1.66261 0)
(-25.8851 -1.96816 0)
(-4.7255 -4.33467 0)
(-12.0434 -8.01696 0)
(20.9083 -17.508 0)
(28.1301 -26.4311 0)
(62.4895 -33.2962 0)
(78.0997 -34.968 0)
(121.157 -28.339 0)
(128.464 -19.6061 0)
(158.246 -12.6939 0)
(158.448 -5.00981 0)
(172.741 2.4314 0)
(163.103 0.81997 0)
(186.966 -9.16888 0)
(200.985 -19.3444 0)
(203.694 -22.4633 0)
(212.435 -22.8471 0)
(238.895 -19.8851 0)
(248.829 -16.5139 0)
(284.531 -14.0622 0)
(275.172 -12.1051 0)
(310.164 -3.40384 0)
(292.731 7.46991 0)
(309.094 14.5285 0)
(279.781 21.4664 0)
(272.146 18.1687 0)
(238.451 14.567 0)
(224.515 17.0004 0)
(189.467 18.9105 0)
(154.62 29.3328 0)
(63.8995 19.9073 0)
(81.7355 -3.22869 0)
(-5.07188 -34.21 0)
(30.5303 -13.3556 0)
(53.3362 -11.404 0)
(71.1806 -10.4483 0)
(78.1021 0.239499 0)
(80.8589 17.0872 0)
(62.1615 39.271 0)
(37.5253 53.554 0)
(-6.26524 61.9661 0)
(-77.6542 70.7911 0)
(-131.473 76.855 0)
(-193.859 80.6364 0)
(-255.033 64.9018 0)
(-287.073 34.3758 0)
(-268.258 13.4309 0)
(-258.733 10.6793 0)
(-282.218 27.0028 0)
(-281.327 43.0592 0)
(-294.96 51.5708 0)
(-330.478 50.5136 0)
(-430.283 51.8378 0)
(-528.136 78.6201 0)
(-657.583 120.115 0)
(-787.1 138.385 0)
(-931.867 140.379 0)
(-1157.12 156.248 0)
(-1331.35 134.536 0)
(-1346.47 81.4216 0)
(-1407.5 52.2544 0)
(-1535.32 116.42 0)
(-2031.66 240.295 0)
(-2182.62 227.986 0)
(-1896.72 56.7403 0)
(-1569.65 -96.7117 0)
(-1399.89 -136.746 0)
(-1296.39 -115.416 0)
(-1253.93 -83.1576 0)
(-1169.17 -64.8257 0)
(-1186.1 -55.1793 0)
(-1137.39 -50.7749 0)
(-1001.27 -70.0618 0)
(-940.78 -85.7481 0)
(-834.403 -94.9568 0)
(-792.645 -104.844 0)
(-688.636 -116.423 0)
(-612.522 -141.581 0)
(-544.506 -137.138 0)
(-389.698 -81.825 0)
(-397.42 -42.4409 0)
(-359.709 -48.2935 0)
(-380.506 -48.3576 0)
(-340.093 -37.7205 0)
(-286.448 -34.1461 0)
(-277.845 -35.0773 0)
(-245.36 -47.2659 0)
(-261.494 -55.5568 0)
(-209.661 -52.2775 0)
(-188.541 -49.3245 0)
(-189.931 -51.3834 0)
(-148.573 -57.9044 0)
(-135.361 -51.6526 0)
(-81.8447 -38.8329 0)
(-76.1759 -30.7448 0)
(-22.9675 -26.2463 0)
(-27.0236 -15.4307 0)
(-33.4089 2.39746 0)
(-30.1015 7.88706 0)
(-19.6577 0.930197 0)
(-3.04883 -4.519 0)
(-1.37916 -6.48163 0)
(15.4369 -11.7582 0)
(33.0404 -20.9627 0)
(27.8316 -31.2496 0)
(63.4352 -39.5967 0)
(82.7463 -40.8905 0)
(89.47 -33.3822 0)
(115.01 -23.4812 0)
(115.941 -16.1294 0)
(141.299 -6.98286 0)
(135.235 1.27513 0)
(156.251 -0.628575 0)
(155.025 -12.8434 0)
(152.517 -22.2313 0)
(176.765 -24.1815 0)
(174.944 -24.5462 0)
(166.5 -25.557 0)
(216.789 -23.8067 0)
(251.002 -17.1369 0)
(236.181 -13.5457 0)
(253.569 -6.03698 0)
(254.533 5.99028 0)
(278.086 16.5911 0)
(254.33 25.0505 0)
(247.202 22.8869 0)
(232.422 20.8969 0)
(200.719 23.613 0)
(182.183 28.1094 0)
(110.678 46.1368 0)
(37.1404 29.4998 0)
(33.757 -2.57839 0)
(-10.721 -38.6905 0)
(24.3605 -18.0571 0)
(50.6388 -16.3256 0)
(58.3698 -13.8188 0)
(67.5842 -0.505418 0)
(56.0247 18.8537 0)
(54.3874 42.7018 0)
(34.384 61.2797 0)
(-18.675 74.6549 0)
(-80.769 85.6973 0)
(-144.412 94.1297 0)
(-220.119 97.2838 0)
(-251.872 75.9104 0)
(-278.052 34.9076 0)
(-262.106 11.3662 0)
(-259.377 10.4718 0)
(-254.764 29.0357 0)
(-285.941 46.8484 0)
(-296.419 59.0237 0)
(-354.134 69.2558 0)
(-450.491 81.8641 0)
(-612.58 115.097 0)
(-787.751 154.214 0)
(-928.713 173.983 0)
(-1082.36 190.857 0)
(-1325.14 205.126 0)
(-1394 155.724 0)
(-1451.32 95.4674 0)
(-1552.38 84.8779 0)
(-1873.85 223.497 0)
(-2603.61 344.608 0)
(-2258.87 151.495 0)
(-1743.19 -62.8014 0)
(-1411.11 -165.965 0)
(-1280.07 -172.376 0)
(-1220.25 -138.355 0)
(-1113.03 -100.42 0)
(-1063.58 -71.0201 0)
(-1069.34 -54.4062 0)
(-1012.85 -71.6593 0)
(-870.773 -96.8767 0)
(-796.775 -106.376 0)
(-730.746 -113.911 0)
(-639.608 -119.655 0)
(-616.122 -134.311 0)
(-558.397 -161.356 0)
(-454.986 -169.252 0)
(-306.014 -100.381 0)
(-308.405 -46.4591 0)
(-281.32 -47.6347 0)
(-323.667 -48.9381 0)
(-285.269 -48.1124 0)
(-276.561 -42.101 0)
(-227.919 -40.6324 0)
(-230.892 -48.3924 0)
(-207.872 -60.7552 0)
(-202.962 -58.5267 0)
(-165.288 -53.5645 0)
(-169.659 -55.9328 0)
(-135.026 -63.5728 0)
(-136.346 -57.8167 0)
(-110.278 -46.0654 0)
(-69.5699 -38.4274 0)
(-53.7718 -32.8876 0)
(-23.1251 -16.6884 0)
(-30.0392 0.530406 0)
(4.31884 4.35855 0)
(13.4399 -1.29108 0)
(-0.784671 -5.06749 0)
(19.1015 -9.40477 0)
(12.4197 -14.4898 0)
(39.8118 -23.0944 0)
(36.5785 -34.4569 0)
(42.5231 -43.5982 0)
(45.809 -44.6093 0)
(66.2248 -36.4522 0)
(63.0523 -26.5077 0)
(82.7692 -18.9443 0)
(81.3536 -10.0026 0)
(110.259 -2.1782 0)
(114.73 -2.41976 0)
(124.472 -12.1718 0)
(96.9489 -22.3522 0)
(103.693 -24.4458 0)
(90.4403 -25.2113 0)
(104.552 -28.7884 0)
(109.471 -33.8809 0)
(164.021 -23.3905 0)
(192.052 -15.3787 0)
(181.727 -8.09655 0)
(216.683 3.54483 0)
(213.213 14.1739 0)
(244.046 25.4295 0)
(234.113 27.3357 0)
(197.972 26.8682 0)
(190.237 30.3636 0)
(134.887 40.9757 0)
(70.3032 63.2542 0)
(2.45347 36.9653 0)
(8.28948 -0.00787109 0)
(-22.548 -41.2606 0)
(16.441 -22.7328 0)
(44.0487 -21.0636 0)
(48.9757 -15.6146 0)
(43.5022 0.244087 0)
(36.6629 20.668 0)
(17.9742 46.9484 0)
(8.97001 71.1784 0)
(-39.5302 88.8025 0)
(-89.914 101.82 0)
(-164.425 111.687 0)
(-221.887 108.44 0)
(-253.815 82.0341 0)
(-275.461 36.9138 0)
(-267.99 7.07945 0)
(-243.04 9.80223 0)
(-253.387 32.5378 0)
(-261.657 52.2568 0)
(-309.123 68.6796 0)
(-373.778 91.6221 0)
(-510.418 116.334 0)
(-660.269 156.957 0)
(-862.153 198.968 0)
(-1110.48 219.329 0)
(-1274.44 241.091 0)
(-1465.22 238.558 0)
(-1477.59 166.458 0)
(-1568.25 123.184 0)
(-1791.53 157.536 0)
(-2251.39 343.971 0)
(-2534.12 351.184 0)
(-1795.85 0.09578 0)
(-1465.26 -167.919 0)
(-1262.67 -207.105 0)
(-1183.53 -188.621 0)
(-1121.64 -156.224 0)
(-1039.92 -116.599 0)
(-1017.85 -74.9399 0)
(-973.232 -71.2404 0)
(-835.771 -99.9967 0)
(-753.446 -121.915 0)
(-637.021 -127.033 0)
(-564.35 -126.954 0)
(-550.452 -127.432 0)
(-525.954 -143.734 0)
(-434.357 -180.872 0)
(-391.564 -197.266 0)
(-235.191 -119.506 0)
(-224.2 -49.0838 0)
(-204.662 -46.0662 0)
(-218.385 -47.9196 0)
(-253.719 -48.3354 0)
(-228.155 -48.422 0)
(-217.36 -46.7092 0)
(-218.767 -50.095 0)
(-214.632 -65.6044 0)
(-175.892 -64.1593 0)
(-170.856 -56.6584 0)
(-133.134 -58.5079 0)
(-149.715 -65.4154 0)
(-143.583 -62.6859 0)
(-95.311 -53.5228 0)
(-86.3963 -44.7179 0)
(-45.3815 -36.803 0)
(-39.4159 -19.7727 0)
(-11.0063 -3.45589 0)
(-4.50971 -0.915649 0)
(19.2519 -2.44022 0)
(6.31942 -5.84257 0)
(24.2844 -11.0191 0)
(12.184 -16.8623 0)
(37.9097 -24.3361 0)
(20.9537 -33.4918 0)
(9.49515 -44.4037 0)
(21.1709 -45.9558 0)
(12.5459 -38.1474 0)
(26.0929 -28.1258 0)
(20.2165 -20.9236 0)
(41.3074 -12.7483 0)
(44.7536 -6.23015 0)
(68.8156 -4.30412 0)
(72.4813 -9.35964 0)
(32.6971 -18.8889 0)
(33.1918 -22.0874 0)
(13.3521 -23.132 0)
(6.29551 -31.5715 0)
(38.7592 -40.2384 0)
(53.6021 -32.5535 0)
(114.398 -20.1245 0)
(110.165 -10.653 0)
(126.5 -2.13615 0)
(171.505 7.69977 0)
(193.481 24.1961 0)
(176.44 30.229 0)
(176.479 32.2444 0)
(138.924 39.8833 0)
(89.55 55.3149 0)
(50.2864 76.4415 0)
(-10.422 45.3234 0)
(-5.69089 2.66811 0)
(-37.6385 -41.5625 0)
(9.01337 -27.6889 0)
(36.1754 -25.3714 0)
(35.2576 -15.7999 0)
(22.7537 3.51048 0)
(5.07715 23.9046 0)
(-6.31957 50.4607 0)
(-21.9349 78.5162 0)
(-61.0978 99.2632 0)
(-113.217 116.058 0)
(-175.501 127.948 0)
(-247.406 120.49 0)
(-261.022 86.8687 0)
(-261.401 39.4682 0)
(-259.165 3.4958 0)
(-242.904 6.13975 0)
(-232.392 34.3643 0)
(-264.236 60.3041 0)
(-306.554 85.5525 0)
(-423.305 119.276 0)
(-546.988 153.932 0)
(-755.862 201.135 0)
(-996.481 255.857 0)
(-1294.63 281.01 0)
(-1511.72 291.158 0)
(-1519.22 248.515 0)
(-1571.4 175.949 0)
(-1674.55 164.139 0)
(-1863.26 245.417 0)
(-2354.52 415.401 0)
(-2116.98 265.515 0)
(-1501.44 -113.726 0)
(-1327.38 -227.332 0)
(-1190.96 -241.495 0)
(-1082.96 -208.898 0)
(-1021.23 -172.884 0)
(-983.259 -123.095 0)
(-924.619 -88.2157 0)
(-815.306 -95.2881 0)
(-731.677 -124.557 0)
(-632.376 -148.005 0)
(-560.265 -146.494 0)
(-530.031 -138.066 0)
(-486.926 -139.918 0)
(-394.172 -158.189 0)
(-362.27 -199.318 0)
(-277.039 -219.49 0)
(-189.414 -136.653 0)
(-117.901 -53.7591 0)
(-156.669 -43.8074 0)
(-148.11 -43.2047 0)
(-204.007 -44.7048 0)
(-180.386 -50.9635 0)
(-189.933 -46.4818 0)
(-201.548 -50.2846 0)
(-174.674 -69.2648 0)
(-177.063 -69.3367 0)
(-142.343 -62.9697 0)
(-143.155 -62.094 0)
(-114.326 -64.7708 0)
(-124.788 -66.3937 0)
(-86.8044 -60.0383 0)
(-84.7452 -51.3165 0)
(-48.1205 -43.1418 0)
(-44.7798 -26.3282 0)
(-6.79975 -9.61765 0)
(9.56008 -3.78978 0)
(7.91334 -2.61686 0)
(25.2279 -5.37776 0)
(10.6244 -10.7567 0)
(7.67592 -18.1692 0)
(15.8956 -24.2947 0)
(17.0037 -29.6621 0)
(-9.46242 -41.0817 0)
(-21.8326 -46.2401 0)
(-18.0556 -38.3033 0)
(-33.2909 -28.9302 0)
(-18.2409 -22.4226 0)
(-27.2126 -15.7211 0)
(-4.222 -9.3019 0)
(-7.04089 -5.46524 0)
(-9.13797 -6.45919 0)
(-34.8207 -11.2696 0)
(-80.5764 -16.5326 0)
(-101.102 -22.6616 0)
(-75.6853 -34.274 0)
(-70.8429 -44.8865 0)
(-48.1139 -42.9619 0)
(20.3911 -29.8367 0)
(35.4325 -15.1017 0)
(64.1317 -8.31163 0)
(90.7485 1.44002 0)
(109.572 20.6303 0)
(138.63 31.3011 0)
(114.297 38.5298 0)
(87.4428 50.1681 0)
(48.6761 66.2012 0)
(16.2822 85.6665 0)
(-39.2939 50.7228 0)
(-11.7382 2.94248 0)
(-40.5094 -40.5717 0)
(9.22709 -31.9359 0)
(27.4431 -28.497 0)
(13.5293 -13.8959 0)
(-6.34471 7.3373 0)
(-23.0101 27.7126 0)
(-41.2727 54.7154 0)
(-51.6016 85.7385 0)
(-86.475 109.263 0)
(-133.191 130.851 0)
(-201.922 144.574 0)
(-256.277 131.586 0)
(-282.679 88.3879 0)
(-259.454 35.1272 0)
(-237.194 0.341995 0)
(-228.454 3.54659 0)
(-229.585 38.1352 0)
(-255.733 71.7938 0)
(-348.567 108.912 0)
(-472.41 152.55 0)
(-631.481 197.76 0)
(-894.544 271.735 0)
(-1337.04 346.429 0)
(-1467.82 341.89 0)
(-1573.04 303.843 0)
(-1478.93 233.289 0)
(-1434.69 188.793 0)
(-1529.6 211.19 0)
(-1829.05 334.358 0)
(-2150.66 419.091 0)
(-1488.4 136.242 0)
(-1071.24 -186.092 0)
(-1069.52 -248.526 0)
(-1047.06 -257.685 0)
(-1000.79 -227.508 0)
(-982.164 -185.002 0)
(-932.38 -142.851 0)
(-835.593 -113.227 0)
(-724.605 -122.278 0)
(-627.265 -149.222 0)
(-570.177 -164.832 0)
(-517.58 -159.351 0)
(-449.902 -153.133 0)
(-365.634 -153.504 0)
(-337.43 -172.024 0)
(-267.371 -214.871 0)
(-250.342 -241.432 0)
(-117.128 -155.982 0)
(-68.5944 -57.4854 0)
(-100.826 -38.2624 0)
(-124.017 -36.0577 0)
(-138.79 -40.9692 0)
(-129.201 -51.1641 0)
(-160.356 -44.702 0)
(-142.608 -50.4154 0)
(-163.664 -71.0261 0)
(-137.381 -71.7021 0)
(-144.289 -66.4633 0)
(-114.822 -64.9661 0)
(-122.333 -68.3013 0)
(-93.6046 -71.0435 0)
(-94.6758 -64.1357 0)
(-63.8522 -54.495 0)
(-62.8214 -46.5915 0)
(-37.5096 -30.3054 0)
(-25.346 -14.897 0)
(3.05058 -7.12172 0)
(0.364514 -6.07394 0)
(22.162 -6.69792 0)
(10.1904 -8.74854 0)
(17.7593 -18.2178 0)
(4.62249 -23.9428 0)
(-10.2949 -26.5776 0)
(-11.4444 -37.6436 0)
(-33.4243 -42.5362 0)
(-66.6326 -35.0184 0)
(-69.278 -27.9366 0)
(-84.5084 -21.6757 0)
(-73.9611 -16.9103 0)
(-82.9714 -10.5102 0)
(-70.2308 -3.54822 0)
(-105.265 -1.14465 0)
(-132.77 -2.38844 0)
(-181.076 -8.41635 0)
(-192.535 -21.9676 0)
(-196.671 -38.6351 0)
(-153.447 -49.1742 0)
(-138.075 -52.48 0)
(-96.6871 -41.3091 0)
(-36.7086 -24.9404 0)
(16.9688 -16.3738 0)
(37.4221 -3.7135 0)
(46.5791 15.8085 0)
(81.27 30.4064 0)
(59.4936 44.0046 0)
(43.5063 57.1397 0)
(22.9819 74.8893 0)
(-24.0113 93.4665 0)
(-47.9169 51.6307 0)
(-21.2976 4.3843 0)
(-38.8856 -40.3197 0)
(11.5253 -34.5799 0)
(18.104 -28.3238 0)
(-14.398 -8.74608 0)
(-44.1916 13.0411 0)
(-57.3987 31.3186 0)
(-71.8246 58.301 0)
(-78.2392 90.6979 0)
(-112.587 118.652 0)
(-161.638 145.397 0)
(-220.126 159.673 0)
(-272.155 139.735 0)
(-275.124 88.9507 0)
(-268.505 29.64 0)
(-237.815 -6.91179 0)
(-208.296 0.833791 0)
(-211.637 43.89 0)
(-277.537 89.1592 0)
(-380.549 137.812 0)
(-519.729 194.334 0)
(-755.562 265.826 0)
(-1178.27 373.562 0)
(-1424.57 402.362 0)
(-1533.65 349.322 0)
(-1397.32 274.175 0)
(-1243.82 212.86 0)
(-1266.29 202.858 0)
(-1410.53 269.504 0)
(-1673.26 386.972 0)
(-1616.03 329.797 0)
(-1011.54 11.9553 0)
(-770.034 -224.288 0)
(-791.388 -258.24 0)
(-757.25 -257.651 0)
(-783.533 -227.223 0)
(-821.111 -192.198 0)
(-815 -159.755 0)
(-692.408 -136.141 0)
(-609.528 -144.685 0)
(-555.358 -165.621 0)
(-482.489 -180.967 0)
(-426.914 -178.157 0)
(-338.083 -168.024 0)
(-330.501 -166.377 0)
(-279.52 -184.01 0)
(-236.718 -223.311 0)
(-238.709 -259.682 0)
(-90.7755 -178.362 0)
(-37.2961 -58.5734 0)
(-31.7383 -32.9653 0)
(-84.5735 -31.3594 0)
(-82.7482 -38.627 0)
(-111.143 -46.7452 0)
(-142.016 -43.6088 0)
(-109.832 -50.8223 0)
(-142.229 -71.7715 0)
(-112.889 -74.785 0)
(-102.935 -67.8806 0)
(-120.403 -66.9805 0)
(-97.8851 -70.54 0)
(-103.127 -73.9608 0)
(-76.6293 -67.3787 0)
(-76.707 -58.9174 0)
(-50.3601 -50.0998 0)
(-50.2941 -35.026 0)
(-20.2328 -18.6863 0)
(-16.9896 -9.66849 0)
(2.98047 -8.24212 0)
(6.83005 -6.78488 0)
(16.2126 -9.55566 0)
(5.47627 -16.3565 0)
(2.6621 -20.3976 0)
(-29.1947 -22.427 0)
(-30.5571 -32.9288 0)
(-78.7634 -35.6653 0)
(-96.4287 -29.4138 0)
(-133.392 -24.2803 0)
(-130.845 -20.7268 0)
(-148.232 -15.4877 0)
(-144.801 -9.75948 0)
(-163.127 0.115664 0)
(-176.576 5.67098 0)
(-240.497 8.8212 0)
(-263.591 0.739342 0)
(-316.979 -18.8511 0)
(-292.534 -42.5283 0)
(-279.14 -58.0634 0)
(-218.732 -61.6052 0)
(-178.99 -53.2543 0)
(-143.055 -38.7155 0)
(-66.3191 -28.0782 0)
(-31.8774 -9.99235 0)
(1.83025 9.87571 0)
(9.75941 29.1688 0)
(4.16504 46.4633 0)
(9.64699 61.4538 0)
(-23.5187 82.3072 0)
(-36.5235 97.9807 0)
(-72.6323 52.3753 0)
(-36.6091 5.36924 0)
(-43.1466 -40.3805 0)
(12.5612 -35.3465 0)
(5.33274 -24.6934 0)
(-44.0504 -0.716494 0)
(-77.5083 19.5247 0)
(-95.9248 34.6015 0)
(-107.188 61.0912 0)
(-106.878 95.8465 0)
(-140.826 127.326 0)
(-184.172 158.29 0)
(-236.113 172.47 0)
(-274.698 145.557 0)
(-270.815 88.0578 0)
(-252.619 24.1751 0)
(-219.948 -14.0995 0)
(-209.401 -0.57764 0)
(-225.371 53.0327 0)
(-293.629 111.35 0)
(-406.178 170.837 0)
(-596.481 247.971 0)
(-905.116 364.371 0)
(-1393.09 457.106 0)
(-1416.75 413.106 0)
(-1297.18 320.955 0)
(-1083.88 234.601 0)
(-1067.12 208.722 0)
(-1111.22 230.365 0)
(-1214.48 308.712 0)
(-1305.69 385.601 0)
(-1021.47 244.349 0)
(-599.066 -62.1893 0)
(-455.27 -241.667 0)
(-443.894 -254.967 0)
(-444.019 -250.964 0)
(-493.967 -212.852 0)
(-562.398 -172.314 0)
(-643.524 -166.964 0)
(-616.613 -163.365 0)
(-535.233 -162.967 0)
(-447.43 -179.759 0)
(-408.768 -194.511 0)
(-337.596 -191.162 0)
(-305.281 -176.956 0)
(-300.099 -170.011 0)
(-276.08 -189.019 0)
(-286.309 -233.191 0)
(-239.009 -281.235 0)
(-131.6 -203.002 0)
(-44.6717 -66.8972 0)
(-9.82745 -29.4337 0)
(-55.6045 -25.9776 0)
(-45.6154 -34.1864 0)
(-92.5703 -40.0184 0)
(-91.1372 -42.9968 0)
(-104.958 -50.1377 0)
(-96.9977 -70.5603 0)
(-113.936 -76.7025 0)
(-115.635 -68.0837 0)
(-99.6749 -67.0151 0)
(-112.437 -72.191 0)
(-83.8352 -76.6811 0)
(-95.6176 -70.2509 0)
(-63.8315 -61.5463 0)
(-69.8403 -53.5074 0)
(-39.0883 -39.0749 0)
(-40.0261 -23.2042 0)
(-12.218 -13.1078 0)
(-14.1388 -11.4401 0)
(5.04097 -9.30701 0)
(-0.494863 -8.49636 0)
(4.896 -14.6011 0)
(-26.8884 -15.2017 0)
(-30.0046 -19.8675 0)
(-52.5345 -24.4834 0)
(-104.719 -25.2009 0)
(-161.718 -21.4348 0)
(-180.323 -19.6564 0)
(-206.873 -16.6992 0)
(-205.705 -14.092 0)
(-232.73 -6.27949 0)
(-238.778 5.47496 0)
(-266.285 14.3777 0)
(-321.884 20.2886 0)
(-367.387 12.7653 0)
(-430.276 -14.0834 0)
(-422.725 -50.025 0)
(-364.249 -69.2015 0)
(-332.197 -73.2518 0)
(-284.688 -64.6229 0)
(-208.23 -54.0566 0)
(-143.802 -40.9164 0)
(-121.923 -18.9745 0)
(-67.008 3.92662 0)
(-56.9453 27.4735 0)
(-41.4599 46.3179 0)
(-47.7461 64.1584 0)
(-56.2606 87.3123 0)
(-63.7486 98.9286 0)
(-80.29 52.1903 0)
(-49.1906 3.40614 0)
(-48.0896 -40.1897 0)
(11.0381 -34.1663 0)
(-13.59 -17.6973 0)
(-70.3022 9.30119 0)
(-107.082 26.9598 0)
(-128.166 38.302 0)
(-142.854 62.5713 0)
(-136.992 100.404 0)
(-172.546 136.647 0)
(-211.547 170.344 0)
(-251.471 182.074 0)
(-269.255 148.665 0)
(-268.859 84.1397 0)
(-251.457 15.9845 0)
(-201.117 -21.418 0)
(-193.749 2.92941 0)
(-244.443 68.7341 0)
(-331.825 136.011 0)
(-471.303 211.178 0)
(-695.255 317.416 0)
(-1063.45 456.879 0)
(-1283.94 483.382 0)
(-1211.83 392.283 0)
(-991.562 271.382 0)
(-914.049 219.61 0)
(-906.49 214.918 0)
(-925.366 238.773 0)
(-939.876 315.756 0)
(-886.811 342.474 0)
(-593.045 157.47 0)
(-287.009 -117.558 0)
(-217.587 -257.786 0)
(-218.587 -268.103 0)
(-175.12 -247.53 0)
(-240.333 -194.611 0)
(-349.066 -155.944 0)
(-438.619 -151.226 0)
(-468.366 -162.55 0)
(-444.33 -183.083 0)
(-390.675 -197.826 0)
(-341.028 -207.84 0)
(-315.054 -202.899 0)
(-292.907 -183.1 0)
(-265.583 -171.363 0)
(-286.95 -187.233 0)
(-272.19 -236.156 0)
(-284.717 -296.218 0)
(-187.974 -229.145 0)
(-31.697 -85.3789 0)
(7.41337 -30.7473 0)
(-32.9024 -20.8719 0)
(-50.7264 -28.8844 0)
(-55.5868 -35.0475 0)
(-80.1112 -41.7634 0)
(-66.7881 -49.6744 0)
(-86.0701 -66.4917 0)
(-118.912 -74.5043 0)
(-96.3966 -68.6276 0)
(-117.537 -68.4279 0)
(-96.5115 -74.1496 0)
(-100.833 -77.5616 0)
(-114.364 -72.0053 0)
(-73.617 -64.9293 0)
(-83.6025 -57.4496 0)
(-43.052 -42.9558 0)
(-50.9512 -25.3982 0)
(-24.1834 -16.8353 0)
(-15.496 -13.3307 0)
(-19.8687 -10.1364 0)
(-4.98427 -8.80912 0)
(-26.3495 -9.64094 0)
(-56.5246 -11.2432 0)
(-59.9823 -14.1428 0)
(-113.289 -12.7436 0)
(-176.68 -13.1462 0)
(-211.343 -11.3372 0)
(-257.767 -13.1488 0)
(-263.185 -13.6834 0)
(-288.371 -9.77474 0)
(-301.861 -2.39568 0)
(-316.885 11.6342 0)
(-372.86 26.8571 0)
(-442.277 34.1009 0)
(-490.722 25.7279 0)
(-523.626 -11.2741 0)
(-484.254 -56.3391 0)
(-464.496 -79.4128 0)
(-412.858 -86.5919 0)
(-339.449 -81.1869 0)
(-281.951 -70.034 0)
(-245.498 -52.7804 0)
(-185.265 -29.8579 0)
(-153.094 -3.30391 0)
(-111.4 22.0619 0)
(-106.538 44.6127 0)
(-93.9806 65.5139 0)
(-107.009 88.4201 0)
(-76.056 95.0396 0)
(-85.7552 51.9112 0)
(-60.8461 11.2578 0)
(-55.6018 -38.5202 0)
(3.32608 -30.6256 0)
(-39.047 -8.40795 0)
(-96.8519 20.3459 0)
(-133.95 35.6506 0)
(-159.879 43.0657 0)
(-177.522 64.4679 0)
(-166.613 103.761 0)
(-204.136 145.119 0)
(-235.257 177.801 0)
(-253.017 185.157 0)
(-273.789 149.962 0)
(-252.521 83.4813 0)
(-229.335 11.541 0)
(-198.531 -27.6534 0)
(-199.98 7.27976 0)
(-243.615 87.223 0)
(-376.17 167.333 0)
(-541.321 264.973 0)
(-834.92 404.226 0)
(-1189.71 524.224 0)
(-1100.06 470.474 0)
(-908.369 342.568 0)
(-789.618 247.221 0)
(-743.229 214.175 0)
(-731.118 211.789 0)
(-689.95 237.414 0)
(-668.463 300.803 0)
(-534.015 289.091 0)
(-239.141 100.966 0)
(-64.6029 -151.529 0)
(-16.8018 -269.395 0)
(7.1158 -272.6 0)
(36.757 -245.598 0)
(-25.4268 -176.629 0)
(-104.401 -127.016 0)
(-237.186 -132.262 0)
(-295.4 -158.761 0)
(-307.663 -183.488 0)
(-318.803 -206.174 0)
(-286.879 -217.802 0)
(-266.158 -209.839 0)
(-253.084 -185.354 0)
(-266.107 -170.884 0)
(-271.689 -185.254 0)
(-295.266 -235.92 0)
(-291.123 -310.32 0)
(-208.414 -259.688 0)
(-20.0083 -108.793 0)
(-8.81311 -31.1909 0)
(-3.08118 -16.6877 0)
(-45.4275 -24.4686 0)
(-38.272 -33.4338 0)
(-47.1888 -40.383 0)
(-61.0946 -46.9093 0)
(-83.5556 -61.6978 0)
(-82.5257 -71.9231 0)
(-104.812 -67.4435 0)
(-100.58 -68.4108 0)
(-87.9038 -75.3103 0)
(-112.727 -75.6876 0)
(-97.2286 -74.6933 0)
(-104.659 -68.0891 0)
(-76.7935 -61.877 0)
(-73.578 -45.6614 0)
(-51.9392 -27.1326 0)
(-54.758 -19.4798 0)
(-50.3166 -14.9744 0)
(-29.0688 -11.9804 0)
(-38.2709 -6.14332 0)
(-60.2414 -4.07472 0)
(-71.9488 -6.28774 0)
(-119.282 -5.05187 0)
(-147.978 0.656509 0)
(-222.968 2.46199 0)