/*--------------------------------*- C++ -*----------------------------------*\
| =========                 |                                                 |
| \\      /  F ield         | foam-extend: Open Source CFD                    |
|  \\    /   O peration     | Version:     5.0                                |
|   \\  /    A nd           | Web:         http://www.foam-extend.org         |
|    \\/     M anipulation  |                                                 |
\*---------------------------------------------------------------------------*/
FoamFile
{
    version     2.0;
    format      ascii;
    class       volVectorField;
    location    "0.06";
    object      bodyForce;
}
// * * * * * * * * * * * * * * * * * * * * * * * * * * * * * * * * * * * * * //

dimensions      [0 1 -2 0 0 0 0];

internalField   nonuniform List<vector> 
4000
(
(3478.54 -0 0)
(6680.69 -0 0)
(7551.23 -0 0)
(8769.36 -0 0)
(7218 -0 0)
(9469.23 -0 0)
(10302.9 -0 0)
(10078.7 -0 0)
(2797.32 -0 0)
(7787.78 -0 0)
(13259.6 -0 0)
(11509.7 -0 0)
(15497.3 -0 0)
(18965.6 -0 0)
(22309.9 -0 0)
(26012.2 -0 0)
(26931.8 -0 0)
(31273 -0 0)
(34327.2 -0 0)
(37089.7 -0 0)
(33710 -0 0)
(35287.7 -0 0)
(36266.9 -0 0)
(38750.6 -0 0)
(33504.6 -0 0)
(38187.4 -0 0)
(39385 -0 0)
(42779.2 -0 0)
(30444.1 -0 0)
(30888.4 -0 0)
(31747.1 -0 0)
(30691.9 -0 0)
(27048 -0 0)
(25041.9 -0 0)
(22218.2 -0 0)
(17371.2 -0 0)
(20880.7 -0 0)
(21715.1 -0 0)
(11108.3 -0 0)
(10792.2 -0 0)
(8183.7 -0 0)
(11418.8 -0 0)
(4968.67 -0 0)
(6583.52 -0 0)
(-7384.16 0 0)
(-4127.83 0 0)
(-3613.74 0 0)
(-2847.4 0 0)
(-2997.9 0 0)
(-6657.3 0 0)
(-19312.9 0 0)
(-13828.6 0 0)
(-14366.5 0 0)
(-6785.51 0 0)
(-14310.4 0 0)
(-12076.6 0 0)
(-13053.7 0 0)
(-14710.4 0 0)
(-15878.3 0 0)
(-21787.4 0 0)
(-17708.6 0 0)
(-17225.8 0 0)
(-18615.8 0 0)
(-17980.8 0 0)
(-10915.7 0 0)
(-13256.4 0 0)
(-9392.16 0 0)
(-11556.7 0 0)
(-9771.7 0 0)
(-9787.22 0 0)
(-8589.65 0 0)
(-6524.07 0 0)
(-4835.96 0 0)
(-5571.02 0 0)
(-5265.95 0 0)
(-4451.84 0 0)
(-4989.14 0 0)
(-6342.55 0 0)
(-9369.19 0 0)
(-10441.5 0 0)
(-16633.3 0 0)
(-11102.5 0 0)
(-9274.45 0 0)
(-14664.9 0 0)
(-9345.88 0 0)
(-7610.18 0 0)
(-16661.1 0 0)
(-9699.74 0 0)
(-17392.1 0 0)
(-11583.5 0 0)
(-15952.9 0 0)
(-4997.94 0 0)
(-13859.3 0 0)
(-9116.53 0 0)
(-7980.37 0 0)
(-10238.5 0 0)
(-11934.1 0 0)
(-26594.4 0 0)
(-37549.9 0 0)
(-37194.4 0 0)
(8438.58 -0 0)
(14495.6 -0 0)
(18157.9 -0 0)
(20964.4 -0 0)
(12273.3 -0 0)
(17592.6 -0 0)
(21920.9 -0 0)
(23212.5 -0 0)
(9320.7 -0 0)
(17544.9 -0 0)
(24866.4 -0 0)
(18983.6 -0 0)
(31808.1 -0 0)
(38889 -0 0)
(45670.5 -0 0)
(54609.9 -0 0)
(48652.3 -0 0)
(59628.4 -0 0)
(68259.7 -0 0)
(63273.1 -0 0)
(73243.5 -0 0)
(76352.3 -0 0)
(78020.9 -0 0)
(68095.8 -0 0)
(62230 -0 0)
(71682 -0 0)
(72875.4 -0 0)
(77319.3 -0 0)
(59085.6 -0 0)
(62990.8 -0 0)
(65295.3 -0 0)
(53949.9 -0 0)
(48346.6 -0 0)
(51075 -0 0)
(46536.8 -0 0)
(31049.6 -0 0)
(40978.8 -0 0)
(43508.7 -0 0)
(28245 -0 0)
(26556 -0 0)
(12927.8 -0 0)
(15873 -0 0)
(5510.15 -0 0)
(-4357.25 0 0)
(-14974 0 0)
(-6040.51 0 0)
(-4000.31 0 0)
(-1582.62 0 0)
(-17910.1 0 0)
(-22321.6 0 0)
(-36183.6 0 0)
(-25207 0 0)
(-34597 0 0)
(-29042.8 0 0)
(-33414.9 0 0)
(-23572.4 0 0)
(-21694.5 0 0)
(-20135.2 0 0)
(-35370.2 0 0)
(-42029 0 0)
(-46722.3 0 0)
(-35446.7 0 0)
(-30833.8 0 0)
(-29242.3 0 0)
(-17649.6 0 0)
(-25311 0 0)
(-15925.8 0 0)
(-15057.6 0 0)
(-11885.7 0 0)
(-9761.61 0 0)
(-16508 0 0)
(-9308.26 0 0)
(-2851.59 0 0)
(-3113.56 0 0)
(-1517.56 0 0)
(-12336 0 0)
(-17738.9 0 0)
(-9519.62 0 0)
(-8898.05 0 0)
(-8942.89 0 0)
(-21419.3 0 0)
(-24516.9 0 0)
(-15777.1 0 0)
(-22284.2 0 0)
(-18120.7 0 0)
(-11259.2 0 0)
(-25861.3 0 0)
(-19154.5 0 0)
(-18079.2 0 0)
(-12803.7 0 0)
(-24798.5 0 0)
(-12908.7 0 0)
(-25472.8 0 0)
(-17199.1 0 0)
(-12935.3 0 0)
(-30139.3 0 0)
(-26882.7 0 0)
(-46250.6 0 0)
(-63683.1 0 0)
(-62069.9 0 0)
(9489.44 -0 0)
(16557.8 -0 0)
(22167.6 -0 0)
(26287.3 -0 0)
(26187 -0 0)
(14869.3 -0 0)
(22041.7 -0 0)
(26782.7 -0 0)
(27760.3 -0 0)
(32801.5 -0 0)
(21548.5 -0 0)
(33053.8 -0 0)
(43102 -0 0)
(48396.3 -0 0)
(53530.4 -0 0)
(66554.2 -0 0)
(64071.4 -0 0)
(56067.4 -0 0)
(69963.9 -0 0)
(83091.1 -0 0)
(88986.1 -0 0)
(91531.1 -0 0)
(94678.1 -0 0)
(81253.3 -0 0)
(71061.6 -0 0)
(77366.3 -0 0)
(83891.3 -0 0)
(68408.6 -0 0)
(70953.4 -0 0)
(72986.1 -0 0)
(75577.1 -0 0)
(59699.7 -0 0)
(65139.4 -0 0)
(51945.7 -0 0)
(54732.8 -0 0)
(37080.5 -0 0)
(44165.4 -0 0)
(47318.3 -0 0)
(44057.4 -0 0)
(24134.6 -0 0)
(27558.5 -0 0)
(12800.8 -0 0)
(2530.07 -0 0)
(-10053.9 0 0)
(-4117.11 0 0)
(727.857 -0 0)
(-15113.6 0 0)
(-8950.23 0 0)
(-26629.2 0 0)
(-38888.5 0 0)
(-33125 0 0)
(-25928.5 0 0)
(-40066 0 0)
(-44474.8 0 0)
(-35431.1 0 0)
(-25842.7 0 0)
(-31713.8 0 0)
(-21951.8 0 0)
(-36440.3 0 0)
(-43339.6 0 0)
(-48320.7 0 0)
(-37623.3 0 0)
(-30267.6 0 0)
(-24189.2 0 0)
(-12200.7 0 0)
(-22985.1 0 0)
(-13091.8 0 0)
(-8669.84 0 0)
(-4233.65 0 0)
(-9918.61 0 0)
(-4145.44 0 0)
(-12852.8 0 0)
(918.425 -0 0)
(-8273.71 0 0)
(888.854 -0 0)
(-16297.2 0 0)
(-5591.29 0 0)
(-16309.4 0 0)
(-8089.26 0 0)
(-6311.02 0 0)
(-20741.1 0 0)
(-13646 0 0)
(-25149 0 0)
(-15384.8 0 0)
(-30255.3 0 0)
(-18634 0 0)
(-30918.8 0 0)
(-39108.1 0 0)
(-27348.7 0 0)
(-15678.5 0 0)
(-21658.2 0 0)
(-30462.5 0 0)
(-26956.9 0 0)
(-20054.3 0 0)
(-18083.3 0 0)
(-32651.5 0 0)
(-46503 0 0)
(-41337.2 0 0)
(-47038.8 0 0)
(-72118.9 0 0)
(5308.25 -0 0)
(13775.3 -0 0)
(19289.9 -0 0)
(24152.2 -0 0)
(17581 -0 0)
(21236.3 -0 0)
(10710.2 -0 0)
(21631.4 -0 0)
(28672.6 -0 0)
(36017.4 -0 0)
(21684.1 -0 0)
(38350.2 -0 0)
(44403.1 -0 0)
(38999.6 -0 0)
(56523.7 -0 0)
(60343.3 -0 0)
(65182 -0 0)
(56345 -0 0)
(60622.5 -0 0)
(78116.1 -0 0)
(88606.7 -0 0)
(94287.8 -0 0)
(98854 -0 0)
(78814.2 -0 0)
(89920.4 -0 0)
(95349.8 -0 0)
(77612 -0 0)
(63638.2 -0 0)
(73969 -0 0)
(77179.3 -0 0)
(73443.3 -0 0)
(56238.6 -0 0)
(65673.5 -0 0)
(63852.8 -0 0)
(54616.2 -0 0)
(39899.4 -0 0)
(36354.1 -0 0)
(41085.3 -0 0)
(34525.6 -0 0)
(34567.6 -0 0)
(33646.3 -0 0)
(15763.5 -0 0)
(6572.8 -0 0)
(-7965.17 0 0)
(-2737.55 0 0)
(-1678.78 0 0)
(-5273.4 0 0)
(-20266.5 0 0)
(-36050 0 0)
(-46154.8 0 0)
(-37873.2 0 0)
(-30301.2 0 0)
(-42852.7 0 0)
(-49540.8 0 0)
(-33930 0 0)
(-28540 0 0)
(-20061.4 0 0)
(-17506.7 0 0)
(-34962.2 0 0)
(-33305.7 0 0)
(-25080.1 0 0)
(-38011 0 0)
(-28706.8 0 0)
(-20047.7 0 0)
(-9598.85 0 0)
(-20564 0 0)
(-12931.2 0 0)
(-8285.97 0 0)
(-9980.14 0 0)
(-295.06 0 0)
(9314.7 -0 0)
(-3068.71 0 0)
(6952.83 -0 0)
(9064.7 -0 0)
(2115.71 -0 0)
(-15604.8 0 0)
(-3982.9 0 0)
(-1132.09 0 0)
(-3482.28 0 0)
(-13021.4 0 0)
(-8584.48 0 0)
(-22398.3 0 0)
(-28811.4 0 0)
(-29841.4 0 0)
(-21636.1 0 0)
(-30943.7 0 0)
(-22194.2 0 0)
(-17191.8 0 0)
(-14970.6 0 0)
(-16428 0 0)
(-8614.74 0 0)
(-24654.4 0 0)
(-16184.7 0 0)
(-30431.5 0 0)
(-42560.6 0 0)
(-34097.4 0 0)
(-31780 0 0)
(-29436.8 0 0)
(-55856.8 0 0)
(-61018 0 0)
(-1588.85 0 0)
(7973.54 -0 0)
(13449.2 -0 0)
(20029 -0 0)
(19335.2 -0 0)
(12923.9 -0 0)
(3879.72 -0 0)
(15229.8 -0 0)
(23609.6 -0 0)
(30239.1 -0 0)
(20283.3 -0 0)
(33927.5 -0 0)
(29821.3 -0 0)
(41584.1 -0 0)
(48128.5 -0 0)
(39491.9 -0 0)
(58553.1 -0 0)
(60909.7 -0 0)
(73947.3 -0 0)
(66128.4 -0 0)
(83286.2 -0 0)
(93897.6 -0 0)
(99291.1 -0 0)
(80612.9 -0 0)
(92817.4 -0 0)
(97320.3 -0 0)
(76835.7 -0 0)
(63660.3 -0 0)
(75244.3 -0 0)
(80435 -0 0)
(61910.5 -0 0)
(50025.6 -0 0)
(57534.1 -0 0)
(55344.3 -0 0)
(54944.2 -0 0)
(55613.5 -0 0)
(51232.9 -0 0)
(27970.5 -0 0)
(31821.1 -0 0)
(30900.2 -0 0)
(13261.9 -0 0)
(10153.8 -0 0)
(-4112.32 0 0)
(21.701 -0 0)
(-15457.5 0 0)
(-27931.7 0 0)
(-21321.3 0 0)
(-14810.9 0 0)
(-36045 0 0)
(-29315.6 0 0)
(-28320 0 0)
(-43798 0 0)
(-35124.7 0 0)
(-48464.8 0 0)
(-31814.7 0 0)
(-22087.2 0 0)
(-20028 0 0)
(-31987.2 0 0)
(-23548.5 0 0)
(-20326.2 0 0)
(-21125.9 0 0)
(-14749.9 0 0)
(-15585.4 0 0)
(-12652.4 0 0)
(-19663.9 0 0)
(-21384.9 0 0)
(-27684.3 0 0)
(-17091.4 0 0)
(-24176 0 0)
(-6356.12 0 0)
(7232.98 -0 0)
(13336.4 -0 0)
(2113.41 -0 0)
(6540.71 -0 0)
(10740.7 -0 0)
(-12014.8 0 0)
(-11284.6 0 0)
(-10099.9 0 0)
(-25423.4 0 0)
(-21385 0 0)
(-13951.5 0 0)
(-28624.3 0 0)
(-17259.8 0 0)
(-13573 0 0)
(-28632.6 0 0)
(-18619.7 0 0)
(-31411.8 0 0)
(-22248.8 0 0)
(-17151.9 0 0)
(-8139.57 0 0)
(-23064.1 0 0)
(-14607 0 0)
(-26945.1 0 0)
(-19210.4 0 0)
(-37001.7 0 0)
(-30546 0 0)
(-29494.3 0 0)
(-29076.4 0 0)
(-58610.2 0 0)
(-64750.1 0 0)
(-3528.07 0 0)
(1594.52 -0 0)
(6164.44 -0 0)
(12025.8 -0 0)
(18989.3 -0 0)
(24471.8 -0 0)
(9773.01 -0 0)
(4212.79 -0 0)
(17672.4 -0 0)
(12130.4 -0 0)
(11985.3 -0 0)
(16383.9 -0 0)
(33140.5 -0 0)
(25376.4 -0 0)
(22981.8 -0 0)
(36220.7 -0 0)
(54777.7 -0 0)
(66187.5 -0 0)
(77208.2 -0 0)
(65958.4 -0 0)
(86135.3 -0 0)
(93134.3 -0 0)
(96997 -0 0)
(96318.5 -0 0)
(92772.4 -0 0)
(78509.8 -0 0)
(68665 -0 0)
(72569.7 -0 0)
(79034.7 -0 0)
(80332.6 -0 0)
(62186.4 -0 0)
(51729.3 -0 0)
(42834.6 -0 0)
(32497.2 -0 0)
(36793.6 -0 0)
(43412 -0 0)
(29033.9 -0 0)
(12459.3 -0 0)
(13912.7 -0 0)
(15732.9 -0 0)
(-2856.95 0 0)
(-15328.7 0 0)
(-8264.76 0 0)
(-21378.9 0 0)
(-13995.5 0 0)
(-23740.9 0 0)
(-39874.2 0 0)
(-27646.4 0 0)
(-46794.2 0 0)
(-35879.1 0 0)
(-47795.4 0 0)
(-55590.6 0 0)
(-40955 0 0)
(-50935.5 0 0)
(-34934.3 0 0)
(-24432 0 0)
(-38872.1 0 0)
(-27264.4 0 0)
(-18190 0 0)
(-12251.1 0 0)
(-28841.5 0 0)
(-15036.7 0 0)
(-14003.5 0 0)
(-22283.6 0 0)
(-30585.4 0 0)
(-16353.7 0 0)
(-10859.9 0 0)
(-23968.6 0 0)
(-14681.8 0 0)
(-1946.69 0 0)
(7150.41 -0 0)
(9711.82 -0 0)
(9197.53 -0 0)
(-5661.48 0 0)
(558.589 -0 0)
(-18805.6 0 0)
(-31042.7 0 0)
(-42492 0 0)
(-30301.5 0 0)
(-39171.4 0 0)
(-42452.8 0 0)
(-30203 0 0)
(-19445.4 0 0)
(-33244.6 0 0)
(-27806 0 0)
(-22293.2 0 0)
(-16751.2 0 0)
(-35754.9 0 0)
(-31477.4 0 0)
(-17875.4 0 0)
(-33557 0 0)
(-20348.5 0 0)
(-16624.1 0 0)
(-30298.3 0 0)
(-24617.7 0 0)
(-27494.2 0 0)
(-31147 0 0)
(-47068.6 0 0)
(-57175.3 0 0)
(-73223.3 0 0)
(-3504.95 0 0)
(2806.5 -0 0)
(49.5307 -0 0)
(2208.82 -0 0)
(10998.7 -0 0)
(20646.5 -0 0)
(23459.2 -0 0)
(9867.31 -0 0)
(18395 -0 0)
(23031.8 -0 0)
(26296.5 -0 0)
(18355 -0 0)
(36283.9 -0 0)
(25701.9 -0 0)
(21372.5 -0 0)
(22005 -0 0)
(43607 -0 0)
(62037.2 -0 0)
(70758.9 -0 0)
(64663.2 -0 0)
(85217 -0 0)
(89935.4 -0 0)
(88425.7 -0 0)
(92347.2 -0 0)
(76899.4 -0 0)
(69429.8 -0 0)
(66667.1 -0 0)
(76110.1 -0 0)
(79740.8 -0 0)
(64370.8 -0 0)
(55099.3 -0 0)
(53544.5 -0 0)
(53893 -0 0)
(35010.2 -0 0)
(22851.5 -0 0)
(16350.8 -0 0)
(21306.5 -0 0)
(-442.873 0 0)
(-6846.22 0 0)
(-2424.66 0 0)
(-19356.4 0 0)
(-31230.7 0 0)
(-38298.3 0 0)
(-24734.9 0 0)
(-19586.2 0 0)
(-36029.3 0 0)
(-48931.9 0 0)
(-38953.4 0 0)
(-56752.8 0 0)
(-45542.5 0 0)
(-41726.1 0 0)
(-40573.7 0 0)
(-49821 0 0)
(-41089.6 0 0)
(-48178.6 0 0)
(-32186.2 0 0)
(-41952.2 0 0)
(-27569.8 0 0)
(-20482.9 0 0)
(-13251.3 0 0)
(-31825.2 0 0)
(-18716.1 0 0)
(-18440 0 0)
(-28982 0 0)
(-35775.3 0 0)
(-20280.8 0 0)
(-11604.2 0 0)
(-10915 0 0)
(-22021.3 0 0)
(-5876.27 0 0)
(3437.05 -0 0)
(-6287.62 0 0)
(-11532.7 0 0)
(-7736.91 0 0)
(-18917.2 0 0)
(-18155 0 0)
(-33946.5 0 0)
(-46979.4 0 0)
(-37082 0 0)
(-28474.7 0 0)
(-44661.5 0 0)
(-38683.9 0 0)
(-27022.6 0 0)
(-41403.2 0 0)
(-46603.9 0 0)
(-40247.8 0 0)
(-27124.5 0 0)
(-46400.6 0 0)
(-35713.4 0 0)
(-40989.9 0 0)
(-43501.9 0 0)
(-27628.3 0 0)
(-38415.6 0 0)
(-28483.1 0 0)
(-26070.6 0 0)
(-44619.9 0 0)
(-38874.1 0 0)
(-58293.8 0 0)
(-67270.4 0 0)
(-89749.3 0 0)
(-5349.81 0 0)
(4977.76 -0 0)
(3494.68 -0 0)
(6794.16 -0 0)
(3627.32 -0 0)
(13225.9 -0 0)
(21935.9 -0 0)
(22128.8 -0 0)
(10842.3 -0 0)
(11980.7 -0 0)
(12809.1 -0 0)
(19515.5 -0 0)
(35384.1 -0 0)
(37568.1 -0 0)
(29785.9 -0 0)
(31044 -0 0)
(31987.2 -0 0)
(54784.9 -0 0)
(72383.8 -0 0)
(76526.2 -0 0)
(75730.5 -0 0)
(90593.7 -0 0)
(90434.2 -0 0)
(79728.6 -0 0)
(83594.5 -0 0)
(71032.7 -0 0)
(63991.9 -0 0)
(75775.9 -0 0)
(76427.1 -0 0)
(60256.1 -0 0)
(64240.7 -0 0)
(55235 -0 0)
(50162.8 -0 0)
(36445.6 -0 0)
(18994.7 -0 0)
(6802.35 -0 0)
(-695.434 0 0)
(-16808.9 0 0)
(-16424.9 0 0)
(-21455.9 0 0)
(-36703.2 0 0)
(-35275.1 0 0)
(-46352.3 0 0)
(-32374.6 0 0)
(-28320.6 0 0)
(-42097.8 0 0)
(-53679.8 0 0)
(-50092.4 0 0)
(-65746 0 0)
(-54206.1 0 0)
(-42700.9 0 0)
(-55212.9 0 0)
(-46396.3 0 0)
(-37699.8 0 0)
(-49371.1 0 0)
(-34322.9 0 0)
(-27816.2 0 0)
(-23301.2 0 0)
(-34045 0 0)
(-20226.8 0 0)
(-37804.3 0 0)
(-26995.8 0 0)
(-35599.1 0 0)
(-24870 0 0)
(-36187.7 0 0)
(-22255.5 0 0)
(-14139.2 0 0)
(-8150.54 0 0)
(-22775.7 0 0)
(-8275.55 0 0)
(-274.415 0 0)
(2839.87 -0 0)
(-14071.8 0 0)
(-22680 0 0)
(-22120 0 0)
(-38953 0 0)
(-31351.2 0 0)
(-43241.6 0 0)
(-51978.5 0 0)
(-37054.5 0 0)
(-48824.1 0 0)
(-38568 0 0)
(-31407.2 0 0)
(-45992.1 0 0)
(-39666.7 0 0)
(-50998.8 0 0)
(-36398.9 0 0)
(-51861.7 0 0)
(-37067.1 0 0)
(-33268.2 0 0)
(-31690.2 0 0)
(-40795.6 0 0)
(-33193.5 0 0)
(-30333.2 0 0)
(-44485.8 0 0)
(-52438.9 0 0)
(-44638.8 0 0)
(-65362.8 0 0)
(-75620.7 0 0)
(-97642.3 0 0)
(-6948.83 0 0)
(3853.39 -0 0)
(1353.2 -0 0)
(3017.31 -0 0)
(8377.25 -0 0)
(4223.21 -0 0)
(13553 -0 0)
(19962.7 -0 0)
(22231.6 -0 0)
(10678.3 -0 0)
(20874 -0 0)
(32243.4 -0 0)
(26766.7 -0 0)
(27325.8 -0 0)
(40895.3 -0 0)
(35957.9 -0 0)
(39924.5 -0 0)
(59166.7 -0 0)
(71241 -0 0)
(74715.4 -0 0)
(86934.4 -0 0)
(90860.5 -0 0)
(86604.6 -0 0)
(77741.9 -0 0)
(82194 -0 0)
(68084.6 -0 0)
(70419.6 -0 0)
(73039.7 -0 0)
(65046.5 -0 0)
(55464.3 -0 0)
(56591 -0 0)
(45287.1 -0 0)
(33016 -0 0)
(16109.5 -0 0)
(13031.1 -0 0)
(-2426.97 0 0)
(-12575 0 0)
(-28361.1 0 0)
(-35696.2 0 0)
(-50379 0 0)
(-46442.8 0 0)
(-61740.2 0 0)
(-52757.3 0 0)
(-41577.3 0 0)
(-40306.1 0 0)
(-54499.5 0 0)
(-67432.8 0 0)
(-73472.4 0 0)
(-61841.9 0 0)
(-70152.5 0 0)
(-54045.1 0 0)
(-65714.4 0 0)
(-53192 0 0)
(-40928.9 0 0)
(-49426 0 0)
(-37347.8 0 0)
(-31580 0 0)
(-29708.1 0 0)
(-29479.8 0 0)
(-29970.6 0 0)
(-44504.7 0 0)
(-33495.4 0 0)
(-29851.6 0 0)
(-23059.6 0 0)
(-36091 0 0)
(-26090.6 0 0)
(-19593.1 0 0)
(-12217.3 0 0)
(-24906.6 0 0)
(-13112.1 0 0)
(-10618.3 0 0)
(-4796.72 0 0)
(-20641 0 0)
(-25233.4 0 0)
(-41325.8 0 0)
(-40660.2 0 0)
(-37420 0 0)
(-36310.2 0 0)
(-49128.6 0 0)
(-52806.2 0 0)
(-41857.1 0 0)
(-51769.1 0 0)
(-41797.6 0 0)
(-51294.3 0 0)
(-53954.9 0 0)
(-55233.4 0 0)
(-43142.7 0 0)
(-39509.5 0 0)
(-33176.2 0 0)
(-42038.9 0 0)
(-47427.4 0 0)
(-38707.4 0 0)
(-34238.6 0 0)
(-46863.6 0 0)
(-55842.8 0 0)
(-51087.7 0 0)
(-50497.4 0 0)
(-67362.8 0 0)
(-74529.8 0 0)
(-58957.7 0 0)
(-8080.07 0 0)
(2706.61 -0 0)
(3637.2 -0 0)
(4651.61 -0 0)
(6156.82 -0 0)
(7912.09 -0 0)
(4144.68 -0 0)
(12626.8 -0 0)
(19733.3 -0 0)
(20999.4 -0 0)
(16369.5 -0 0)
(30583.1 -0 0)
(38546.4 -0 0)
(32402.9 -0 0)
(43523.2 -0 0)
(53488.8 -0 0)
(49058.4 -0 0)
(65226.3 -0 0)
(69489.1 -0 0)
(78503 -0 0)
(84064.7 -0 0)
(75325.2 -0 0)
(72077.5 -0 0)
(65807.8 -0 0)
(70218.4 -0 0)
(65629.1 -0 0)
(71414.6 -0 0)
(63041 -0 0)
(56016.3 -0 0)
(44793 -0 0)
(37191.4 -0 0)
(24503.8 -0 0)
(8743.86 -0 0)
(-4076.75 0 0)
(-5701.2 0 0)
(-18840.5 0 0)
(-21987.6 0 0)
(-39839.4 0 0)
(-55768 0 0)
(-64447.7 0 0)
(-61725.1 0 0)
(-73001 0 0)
(-60189.2 0 0)
(-55822.7 0 0)
(-63500.1 0 0)
(-59678.2 0 0)
(-78280.2 0 0)
(-71377.8 0 0)
(-63754.4 0 0)
(-59756.9 0 0)
(-69143.5 0 0)
(-74847.2 0 0)
(-58726 0 0)
(-46500 0 0)
(-40731.1 0 0)
(-49132.7 0 0)
(-38369.3 0 0)
(-47263.8 0 0)
(-44298.7 0 0)
(-47565 0 0)
(-41559.5 0 0)
(-35081.1 0 0)
(-33310.4 0 0)
(-36887 0 0)
(-31338 0 0)
(-38751.4 0 0)
(-31220.7 0 0)
(-20999 0 0)
(-19766.2 0 0)
(-27177.1 0 0)
(-32690.1 0 0)
(-22472.9 0 0)
(-26500.4 0 0)
(-45353.9 0 0)
(-50316.8 0 0)
(-57933.2 0 0)
(-48533.8 0 0)
(-54088.2 0 0)
(-46356.4 0 0)
(-56208.2 0 0)
(-42974.3 0 0)
(-54452.8 0 0)
(-50877.9 0 0)
(-48554.2 0 0)
(-49196.5 0 0)
(-47699.1 0 0)
(-52143.3 0 0)
(-42442 0 0)
(-35288.6 0 0)
(-43127.5 0 0)
(-50456 0 0)
(-40288.8 0 0)
(-48147.3 0 0)
(-55768.1 0 0)
(-55747.1 0 0)
(-51570.1 0 0)
(-56524.2 0 0)
(-66186 0 0)
(-67265.4 0 0)
(-44193.2 0 0)
(-8248.11 0 0)
(2128.79 -0 0)
(6736.73 -0 0)
(7390.81 -0 0)
(8816.48 -0 0)
(4590.97 -0 0)
(8483.63 -0 0)
(4118.5 -0 0)
(13746.7 -0 0)
(15159.5 -0 0)
(23860.1 -0 0)
(23071.7 -0 0)
(36528.2 -0 0)
(42088.1 -0 0)
(36539.5 -0 0)
(55071.1 -0 0)
(62750.4 -0 0)
(60002.4 -0 0)
(67086 -0 0)
(73591.1 -0 0)
(68597.2 -0 0)
(64896.4 -0 0)
(60918.6 -0 0)
(52704.3 -0 0)
(57553 -0 0)
(58116.3 -0 0)
(49629.5 -0 0)
(51977.5 -0 0)
(31702.6 -0 0)
(27666.5 -0 0)
(9541.35 -0 0)
(-1715.77 0 0)
(-7123.14 0 0)
(-20139.6 0 0)
(-18251.7 0 0)
(-40385.2 0 0)
(-42997.6 0 0)
(-54735.1 0 0)
(-72826.7 0 0)
(-77935.8 0 0)
(-77301.2 0 0)
(-76537.8 0 0)
(-77190.9 0 0)
(-74532.8 0 0)
(-69015.2 0 0)
(-77601.7 0 0)
(-82756.5 0 0)
(-85701.9 0 0)
(-81586.1 0 0)
(-65373.2 0 0)
(-77002.8 0 0)
(-67606.8 0 0)
(-58328.1 0 0)
(-57832.4 0 0)
(-47210.1 0 0)
(-53825.4 0 0)
(-48228.3 0 0)
(-51997.2 0 0)
(-56555.7 0 0)
(-52877.9 0 0)
(-44290.1 0 0)
(-39702.1 0 0)
(-48282.7 0 0)
(-42633.8 0 0)
(-43955.9 0 0)
(-38939.1 0 0)
(-42370 0 0)
(-33414 0 0)
(-33934.1 0 0)
(-29710.5 0 0)
(-41267.8 0 0)
(-39910.5 0 0)
(-44221.6 0 0)
(-56426.5 0 0)
(-60447.1 0 0)
(-59985.5 0 0)
(-52764 0 0)
(-49921.2 0 0)
(-55225.1 0 0)
(-55761.8 0 0)
(-48422.6 0 0)
(-51999 0 0)
(-67293.9 0 0)
(-62894.6 0 0)
(-66764.4 0 0)
(-56588.8 0 0)
(-57859.5 0 0)
(-47338.1 0 0)
(-40929.1 0 0)
(-43701.4 0 0)
(-45150 0 0)
(-44358.8 0 0)
(-52198.7 0 0)
(-56754.9 0 0)
(-58123.3 0 0)
(-53581.2 0 0)
(-59477.5 0 0)
(-61816.6 0 0)
(-56550.3 0 0)
(-25559 0 0)
(-8828.82 0 0)
(2534.18 -0 0)
(6061.69 -0 0)
(5553.54 -0 0)
(7110.53 -0 0)
(5603.28 -0 0)
(6957.14 -0 0)
(7246.66 -0 0)
(9561.41 -0 0)
(17410.3 -0 0)
(25759.7 -0 0)
(32528.1 -0 0)
(29261.2 -0 0)
(38372 -0 0)
(38429.3 -0 0)
(51328.9 -0 0)
(58503 -0 0)
(53904.2 -0 0)
(58520.2 -0 0)
(60724.2 -0 0)
(52281.9 -0 0)
(38165.5 -0 0)
(38555.3 -0 0)
(46401 -0 0)
(33216.4 -0 0)
(38318.8 -0 0)
(22390.6 -0 0)
(11513.7 -0 0)
(-2198.34 0 0)
(-6498.44 0 0)
(-18804.4 0 0)
(-16802.4 0 0)
(-34239.7 0 0)
(-30751.3 0 0)
(-36058.5 0 0)
(-51152.8 0 0)
(-64387.2 0 0)
(-61485.3 0 0)
(-80973.2 0 0)
(-88473 0 0)
(-82069.9 0 0)
(-85380.9 0 0)
(-85231 0 0)
(-83948.3 0 0)
(-81152.1 0 0)
(-79221.2 0 0)
(-76239 0 0)
(-82747.5 0 0)
(-73044.6 0 0)
(-66401.1 0 0)
(-76721.9 0 0)
(-65776.7 0 0)
(-64359.9 0 0)
(-55443.7 0 0)
(-53612.7 0 0)
(-52766.1 0 0)
(-59863.9 0 0)
(-66421.8 0 0)
(-64413.5 0 0)
(-51785.7 0 0)
(-50949.8 0 0)
(-47535.2 0 0)
(-59130 0 0)
(-52831.3 0 0)
(-44658 0 0)
(-44703.1 0 0)
(-53210.2 0 0)
(-45480.8 0 0)
(-35222.3 0 0)
(-40737.2 0 0)
(-57134.5 0 0)
(-57767.8 0 0)
(-59913.5 0 0)
(-67981.8 0 0)
(-65959 0 0)
(-63342.6 0 0)
(-58190.6 0 0)
(-53432.5 0 0)
(-62547.5 0 0)
(-59998.2 0 0)
(-57540.2 0 0)
(-64304.9 0 0)
(-73622 0 0)
(-75260.1 0 0)
(-72680.9 0 0)
(-68942.9 0 0)
(-64463.6 0 0)
(-46571.8 0 0)
(-51611.5 0 0)
(-50345.8 0 0)
(-47919 0 0)
(-49284.8 0 0)
(-60040.3 0 0)
(-57223.7 0 0)
(-60400.4 0 0)
(-55016.5 0 0)
(-58750.1 0 0)
(-54310.4 0 0)
(-42944.6 0 0)
(-20615.6 0 0)
(-9357.28 0 0)
(2390.12 -0 0)
(4728.63 -0 0)
(3507.65 -0 0)
(5609.23 -0 0)
(3738.49 -0 0)
(3715.23 -0 0)
(4678.59 -0 0)
(6281.53 -0 0)
(12934.4 -0 0)
(20696.9 -0 0)
(30826.9 -0 0)
(29096.3 -0 0)
(33340.1 -0 0)
(35346.5 -0 0)
(43333.2 -0 0)
(44969 -0 0)
(40273.1 -0 0)
(46426.6 -0 0)
(41444.2 -0 0)
(38546.4 -0 0)
(34717.2 -0 0)
(31600.7 -0 0)
(15843.5 -0 0)
(11543.5 -0 0)
(21770 -0 0)
(932.766 -0 0)
(2616.01 -0 0)
(-18569.3 0 0)
(-41604.4 0 0)
(-41122.7 0 0)
(-51081.4 0 0)
(-49472.5 0 0)
(-68187.9 0 0)
(-69488.2 0 0)
(-62049.3 0 0)
(-72705.2 0 0)
(-74633.6 0 0)
(-94263.5 0 0)
(-90255.9 0 0)
(-93258.5 0 0)
(-89067.7 0 0)
(-96720.9 0 0)
(-97310.1 0 0)
(-91101.6 0 0)
(-85814.7 0 0)
(-80383.1 0 0)
(-82680 0 0)
(-74495.3 0 0)
(-62294.6 0 0)
(-75031.3 0 0)
(-65485.9 0 0)
(-64443.3 0 0)
(-55103 0 0)
(-53192 0 0)
(-54269.2 0 0)
(-67788 0 0)
(-69934.3 0 0)
(-66859.3 0 0)
(-58903.9 0 0)
(-49684.9 0 0)
(-65229.5 0 0)
(-73140.4 0 0)
(-71565.1 0 0)
(-60169.9 0 0)
(-62701.7 0 0)
(-61337.8 0 0)
(-57256.4 0 0)
(-50212.9 0 0)
(-57996.9 0 0)
(-70588.1 0 0)
(-65364.6 0 0)
(-74473 0 0)
(-75800.7 0 0)
(-67861 0 0)
(-62826.7 0 0)
(-58222.7 0 0)
(-65557 0 0)
(-59796.1 0 0)
(-69523.3 0 0)
(-69000.3 0 0)
(-66001.6 0 0)
(-84020.7 0 0)
(-84480.8 0 0)
(-81452.3 0 0)
(-76210.1 0 0)
(-69558.1 0 0)
(-52298.1 0 0)
(-61657.5 0 0)
(-57666.7 0 0)
(-58933.4 0 0)
(-53953 0 0)
(-64533.4 0 0)
(-60594.3 0 0)
(-55633.7 0 0)
(-57693 0 0)
(-52371.4 0 0)
(-45535.8 0 0)
(-49491.5 0 0)
(-34380.2 0 0)
(-8317.87 0 0)
(2448.46 -0 0)
(3158.36 -0 0)
(2070.1 -0 0)
(3552.54 -0 0)
(871.991 -0 0)
(363.231 -0 0)
(2414.96 -0 0)
(5690.53 -0 0)
(12071.6 -0 0)
(20455.9 -0 0)
(27264.7 -0 0)
(25960.8 -0 0)
(26173 -0 0)
(28914 -0 0)
(34269.4 -0 0)
(26896.1 -0 0)
(22150.2 -0 0)
(25169.7 -0 0)
(30328.3 -0 0)
(14667.6 -0 0)
(17969.7 -0 0)
(25857.7 -0 0)
(14958.5 -0 0)
(-568.841 0 0)
(5118 -0 0)
(-16440.2 0 0)
(-42932.4 0 0)
(-52323.1 0 0)
(-63618.2 0 0)
(-68236.8 0 0)
(-66145.2 0 0)
(-76873.1 0 0)
(-73380.8 0 0)
(-93232.3 0 0)
(-95036.1 0 0)
(-99673.5 0 0)
(-86382.4 0 0)
(-100150 0 0)
(-88513.3 0 0)
(-94260.2 0 0)
(-106649 0 0)
(-110018 0 0)
(-104591 0 0)
(-105449 0 0)
(-89078.8 0 0)
(-85725.9 0 0)
(-82395.3 0 0)
(-73384.2 0 0)
(-61469.5 0 0)
(-68808.6 0 0)
(-58382.1 0 0)
(-63913.1 0 0)
(-57378 0 0)
(-53612 0 0)
(-50083 0 0)
(-63774 0 0)
(-56649.8 0 0)
(-66440.7 0 0)
(-58399.9 0 0)
(-55844.4 0 0)
(-72532 0 0)
(-70022.8 0 0)
(-76826.9 0 0)
(-70948.9 0 0)
(-66900.3 0 0)
(-55515.1 0 0)
(-71552.7 0 0)
(-63855 0 0)
(-61531.3 0 0)
(-80473.1 0 0)
(-82907.1 0 0)
(-72969.7 0 0)
(-79197.2 0 0)
(-69698.7 0 0)
(-57544.6 0 0)
(-69867.5 0 0)
(-70494.6 0 0)
(-72407 0 0)
(-65428.2 0 0)
(-82885.1 0 0)
(-68966.3 0 0)
(-81939.4 0 0)
(-82829.7 0 0)
(-76602.1 0 0)
(-65057.2 0 0)
(-77476.4 0 0)
(-71906.8 0 0)
(-66791.4 0 0)
(-76888.5 0 0)
(-73146.8 0 0)
(-64510 0 0)
(-53175 0 0)
(-52390.9 0 0)
(-59245.9 0 0)
(-54405.7 0 0)
(-58318.2 0 0)
(-51686.8 0 0)
(-57203.9 0 0)
(-45640.4 0 0)
(-7791.13 0 0)
(384.556 -0 0)
(-2157.56 0 0)
(-4837.54 0 0)
(-2467.95 0 0)
(-5104.54 0 0)
(-2308.03 0 0)
(1882.27 -0 0)
(8623.43 -0 0)
(17203.8 -0 0)
(13443.7 -0 0)
(16476.9 -0 0)
(17292.8 -0 0)
(18402.8 -0 0)
(27911.9 -0 0)
(19822.1 -0 0)
(11834.8 -0 0)
(21439.2 -0 0)
(11004.1 -0 0)
(1328.28 -0 0)
(-4418.16 0 0)
(-910.614 0 0)
(359.165 -0 0)
(5266.83 -0 0)
(-6601.49 0 0)
(-24815.4 0 0)
(-24983.7 0 0)
(-46814.9 0 0)
(-40054.6 0 0)
(-55159.4 0 0)
(-74772.4 0 0)
(-70576.6 0 0)
(-87210.5 0 0)
(-81518.9 0 0)
(-88931.4 0 0)
(-104723 0 0)
(-107303 0 0)
(-99126.8 0 0)
(-111979 0 0)
(-105618 0 0)
(-103720 0 0)
(-111485 0 0)
(-105300 0 0)
(-120361 0 0)
(-114984 0 0)
(-98072.7 0 0)
(-83228.3 0 0)
(-80044.4 0 0)
(-65494.2 0 0)
(-75233.1 0 0)
(-56132.9 0 0)
(-50889.5 0 0)
(-57760.7 0 0)
(-60786.2 0 0)
(-55521.2 0 0)
(-43823.8 0 0)
(-50713.8 0 0)
(-57247.6 0 0)
(-50447.7 0 0)
(-57229.8 0 0)
(-68805.5 0 0)
(-82538.8 0 0)
(-78984.4 0 0)
(-72629.9 0 0)
(-82374.9 0 0)
(-75412.1 0 0)
(-63345.8 0 0)
(-83868 0 0)
(-81846.7 0 0)
(-78500.1 0 0)
(-77352.1 0 0)
(-94850.9 0 0)
(-95026.2 0 0)
(-89134.6 0 0)
(-77060 0 0)
(-66159.6 0 0)
(-83920.4 0 0)
(-76277.3 0 0)
(-62569.2 0 0)
(-76015.4 0 0)
(-97729.6 0 0)
(-82904.2 0 0)
(-63103.5 0 0)
(-70999.1 0 0)
(-59380.3 0 0)
(-57363.1 0 0)
(-62979 0 0)
(-70977.6 0 0)
(-90140.1 0 0)
(-87892.7 0 0)
(-84679.8 0 0)
(-78096.7 0 0)
(-66549.8 0 0)
(-59197.8 0 0)
(-48311.2 0 0)
(-51281.7 0 0)
(-60543.4 0 0)
(-58833 0 0)
(-68011 0 0)
(-49831.2 0 0)
(-9532.22 0 0)
(-4216.95 0 0)
(-6624.35 0 0)
(-8352.55 0 0)
(-1679.48 0 0)
(-7910.69 0 0)
(-3089.12 0 0)
(3945.96 -0 0)
(13347.5 -0 0)
(12427.3 -0 0)
(4527.27 -0 0)
(6804.08 -0 0)
(6322.56 -0 0)
(9796.02 -0 0)
(21014.7 -0 0)
(13865.3 -0 0)
(3950.6 -0 0)
(15693.5 -0 0)
(2835.63 -0 0)
(-14856.8 0 0)
(-9881.89 0 0)
(-24627.1 0 0)
(-24710.4 0 0)
(-25090.8 0 0)
(-17170.1 0 0)
(-39296.2 0 0)
(-42564.8 0 0)
(-68109.3 0 0)
(-64429.1 0 0)
(-86563 0 0)
(-80785 0 0)
(-102984 0 0)
(-99476.8 0 0)
(-118375 0 0)
(-113850 0 0)
(-96933.1 0 0)
(-114402 0 0)
(-106221 0 0)
(-116857 0 0)
(-103835 0 0)
(-119922 0 0)
(-111080 0 0)
(-118252 0 0)
(-121601 0 0)
(-117744 0 0)
(-101754 0 0)
(-104159 0 0)
(-80791 0 0)
(-66437.7 0 0)
(-77787.7 0 0)
(-62906.3 0 0)
(-44553.3 0 0)
(-52506.4 0 0)
(-66691.2 0 0)
(-63326.6 0 0)
(-54065.3 0 0)
(-45939 0 0)
(-51973.1 0 0)
(-64214 0 0)
(-57256.1 0 0)
(-69648.2 0 0)
(-86020.6 0 0)
(-84287.6 0 0)
(-75282.8 0 0)
(-96470.5 0 0)
(-85610.9 0 0)
(-72386.3 0 0)
(-89546 0 0)
(-88180.4 0 0)
(-79132.2 0 0)
(-73468.2 0 0)
(-84006.2 0 0)
(-99983.5 0 0)
(-94261.3 0 0)
(-84491.2 0 0)
(-75289.4 0 0)
(-86826.8 0 0)
(-79009.8 0 0)
(-82589.8 0 0)
(-100439 0 0)
(-102357 0 0)
(-97146.9 0 0)
(-79874 0 0)
(-67383 0 0)
(-79642.9 0 0)
(-76118.8 0 0)
(-60337.1 0 0)
(-70215 0 0)
(-82447.5 0 0)
(-75890.5 0 0)
(-89742.5 0 0)
(-86513.9 0 0)
(-76431.3 0 0)
(-65528.9 0 0)
(-56449.3 0 0)
(-47835.2 0 0)
(-50552.1 0 0)
(-59422.9 0 0)
(-68353.4 0 0)
(-42937.5 0 0)
(-13418.3 0 0)
(-6312.47 0 0)
(-8094.18 0 0)
(-10068.4 0 0)
(-6394.41 0 0)
(-9734.55 0 0)
(-800.809 0 0)
(3698.28 -0 0)
(-1985.82 0 0)
(-4595.53 0 0)
(-7331.3 0 0)
(4871.21 -0 0)
(-5640.68 0 0)
(162.054 -0 0)
(7630.96 -0 0)
(-3322.24 0 0)
(3991.49 -0 0)
(-6501.06 0 0)
(-9333.39 0 0)
(-23822.4 0 0)
(-36060.8 0 0)
(-40958.5 0 0)
(-46186.2 0 0)
(-40660.5 0 0)
(-33063.6 0 0)
(-51903.8 0 0)
(-76833.6 0 0)
(-81457.8 0 0)
(-103577 0 0)
(-102690 0 0)
(-96635.8 0 0)
(-118920 0 0)
(-112372 0 0)
(-133244 0 0)
(-132287 0 0)
(-119844 0 0)
(-133922 0 0)
(-129426 0 0)
(-127361 0 0)
(-112960 0 0)
(-120473 0 0)
(-128120 0 0)
(-124199 0 0)
(-125521 0 0)
(-115514 0 0)
(-128146 0 0)
(-116801 0 0)
(-96301.3 0 0)
(-76702.3 0 0)
(-80120.4 0 0)
(-68259.9 0 0)
(-46301.7 0 0)
(-59628.6 0 0)
(-51709 0 0)
(-57771.1 0 0)
(-71322.8 0 0)
(-71087.9 0 0)
(-66596.9 0 0)
(-54507.4 0 0)
(-62468.8 0 0)
(-78670.4 0 0)
(-72171 0 0)
(-65346.6 0 0)
(-80509 0 0)
(-106745 0 0)
(-96214.8 0 0)
(-83226.4 0 0)
(-71832.9 0 0)
(-90987.5 0 0)
(-86361 0 0)
(-70783.8 0 0)
(-79689.6 0 0)
(-95648.1 0 0)
(-92496.4 0 0)
(-82401.2 0 0)
(-94940.5 0 0)
(-87001 0 0)
(-102231 0 0)
(-96306.1 0 0)
(-80386.5 0 0)
(-101712 0 0)
(-100055 0 0)
(-92231 0 0)
(-82212.5 0 0)
(-67145.6 0 0)
(-83163.5 0 0)
(-69750 0 0)
(-80742.7 0 0)
(-69426.6 0 0)
(-80713.5 0 0)
(-69991.3 0 0)
(-82373.2 0 0)
(-78655.3 0 0)
(-66104.7 0 0)
(-58558.5 0 0)
(-56464.6 0 0)
(-52047.5 0 0)
(-39673 0 0)
(-51760.1 0 0)
(-21667.3 0 0)
(-13967.6 0 0)
(-7163.06 0 0)
(-9957.89 0 0)
(-7449.21 0 0)
(-3204.6 0 0)
(-11109.1 0 0)
(2263.09 -0 0)
(-15524.9 0 0)
(-11589 0 0)
(226.404 -0 0)
(-19988.5 0 0)
(-17106.4 0 0)
(-17845.9 0 0)
(-15221.3 0 0)
(-7166.81 0 0)
(2729.27 -0 0)
(1535.1 -0 0)
(-7503.17 0 0)
(-26635.7 0 0)
(-29929.9 0 0)
(-45270.3 0 0)
(-50824.8 0 0)
(-64948.2 0 0)
(-72616.6 0 0)
(-70622.4 0 0)
(-75922.8 0 0)
(-104194 0 0)
(-110141 0 0)
(-113526 0 0)
(-105444 0 0)
(-120704 0 0)
(-134346 0 0)
(-125080 0 0)
(-139994 0 0)
(-129045 0 0)
(-136426 0 0)
(-151435 0 0)
(-137744 0 0)
(-124425 0 0)
(-134410 0 0)
(-141033 0 0)
(-127981 0 0)
(-122547 0 0)
(-114736 0 0)
(-125404 0 0)
(-135975 0 0)
(-118390 0 0)
(-97991.8 0 0)
(-105564 0 0)
(-92511.3 0 0)
(-80848.3 0 0)
(-63408.6 0 0)
(-49211 0 0)
(-58764.7 0 0)
(-83032.2 0 0)
(-94009.2 0 0)
(-89541.7 0 0)
(-78928.3 0 0)
(-64555.7 0 0)
(-78184.4 0 0)
(-68606.6 0 0)
(-80162.9 0 0)
(-70056.1 0 0)
(-85768.4 0 0)
(-82100.4 0 0)
(-91195.1 0 0)
(-79634.8 0 0)
(-62984 0 0)
(-73365.2 0 0)
(-94458.1 0 0)
(-89946.1 0 0)
(-79800.8 0 0)
(-87039.5 0 0)
(-75556.4 0 0)
(-96995 0 0)
(-89915 0 0)
(-103034 0 0)
(-96857.4 0 0)
(-90496.3 0 0)
(-73383.2 0 0)
(-95557.3 0 0)
(-97570.4 0 0)
(-90045.2 0 0)
(-80477.4 0 0)
(-67104.4 0 0)
(-81224.8 0 0)
(-64417.2 0 0)
(-74719.2 0 0)
(-80402.7 0 0)
(-72857.9 0 0)
(-59785.5 0 0)
(-51493.3 0 0)
(-64620 0 0)
(-51688 0 0)
(-55741.5 0 0)
(-43252 0 0)
(-46603.2 0 0)
(-35553.7 0 0)
(-30350.7 0 0)
(1072.44 -0 0)
(-12577.2 0 0)
(-7826.28 0 0)
(-10484.4 0 0)
(-9189.82 0 0)
(-20218.5 0 0)
(-12521.1 0 0)
(-5013.31 0 0)
(-19956.2 0 0)
(-12967.1 0 0)
(-1989.97 0 0)
(-23199.7 0 0)
(-32328.3 0 0)
(-31450.4 0 0)
(-24798.5 0 0)
(-16746.9 0 0)
(-4848.99 0 0)
(-17219.4 0 0)
(-12854.4 0 0)
(-31034.2 0 0)
(-53094.1 0 0)
(-68161.6 0 0)
(-75595.3 0 0)
(-68090.7 0 0)
(-93247.4 0 0)
(-103403 0 0)
(-100325 0 0)
(-101295 0 0)
(-120006 0 0)
(-148679 0 0)
(-147383 0 0)
(-169891 0 0)
(-167376 0 0)
(-166099 0 0)
(-160148 0 0)
(-180899 0 0)
(-183656 0 0)
(-176128 0 0)
(-163375 0 0)
(-150982 0 0)
(-165218 0 0)
(-154839 0 0)
(-136715 0 0)
(-122926 0 0)
(-130176 0 0)
(-141226 0 0)
(-135837 0 0)
(-120021 0 0)
(-104751 0 0)
(-108626 0 0)
(-114694 0 0)
(-106273 0 0)
(-98989.8 0 0)
(-86873.8 0 0)
(-87386 0 0)
(-85849.7 0 0)
(-105832 0 0)
(-108233 0 0)
(-101093 0 0)
(-92971 0 0)
(-82519.2 0 0)
(-98740.1 0 0)
(-95256.5 0 0)
(-87992.9 0 0)
(-77350.7 0 0)
(-91695.4 0 0)
(-84608.3 0 0)
(-93956.3 0 0)
(-81976.3 0 0)
(-64835.4 0 0)
(-78856.3 0 0)
(-91010.7 0 0)
(-101561 0 0)
(-100484 0 0)
(-87016.5 0 0)
(-77769.3 0 0)
(-96614.8 0 0)
(-89853.5 0 0)
(-75541.5 0 0)
(-64644.6 0 0)
(-58296.2 0 0)
(-73866.2 0 0)
(-69413.6 0 0)
(-82401.9 0 0)
(-77227.3 0 0)
(-86071 0 0)
(-80149.3 0 0)
(-61182.3 0 0)
(-68304.8 0 0)
(-47959.7 0 0)
(-45342.2 0 0)
(-54053.2 0 0)
(-50792.8 0 0)
(-61616.6 0 0)
(-55492.1 0 0)
(-37041.2 0 0)
(-40071.7 0 0)
(-23427.2 0 0)
(-22273.5 0 0)
(-10608.1 0 0)
(23237.6 -0 0)
(-14803.6 0 0)
(-11989.8 0 0)
(-12947.7 0 0)
(-28994.9 0 0)
(-28010.7 0 0)
(-14020.7 0 0)
(-24928.3 0 0)
(-23349.7 0 0)
(-12753.7 0 0)
(-8193.08 0 0)
(-11198.5 0 0)
(-22138.9 0 0)
(-39401.7 0 0)
(-39191.4 0 0)
(-27892.3 0 0)
(-17483.8 0 0)
(-36282.7 0 0)
(-42654.4 0 0)
(-40802.7 0 0)
(-54255.8 0 0)
(-77991.4 0 0)
(-88638.7 0 0)
(-84809.4 0 0)
(-111663 0 0)
(-126250 0 0)
(-134795 0 0)
(-136408 0 0)
(-140208 0 0)
(-166515 0 0)
(-194494 0 0)
(-199517 0 0)
(-196930 0 0)
(-189421 0 0)
(-184962 0 0)
(-176369 0 0)
(-198145 0 0)
(-195885 0 0)
(-189383 0 0)
(-185824 0 0)
(-178853 0 0)
(-171493 0 0)
(-167634 0 0)
(-164510 0 0)
(-159314 0 0)
(-153149 0 0)
(-146994 0 0)
(-145667 0 0)
(-144311 0 0)
(-137399 0 0)
(-127752 0 0)
(-119939 0 0)
(-111391 0 0)
(-103335 0 0)
(-98884.6 0 0)
(-93504.9 0 0)
(-89551.7 0 0)
(-112125 0 0)
(-113849 0 0)
(-118270 0 0)
(-105796 0 0)
(-95662.2 0 0)
(-87476.8 0 0)
(-76461.6 0 0)
(-88747.4 0 0)
(-105328 0 0)
(-101491 0 0)
(-98088.3 0 0)
(-85629.3 0 0)
(-62781.7 0 0)
(-44697 0 0)
(-56239.7 0 0)
(-70550.9 0 0)
(-85936.1 0 0)
(-73462.8 0 0)
(-71568.3 0 0)
(-82118.4 0 0)
(-71947 0 0)
(-60398 0 0)