/*--------------------------------*- C++ -*----------------------------------*\
| =========                 |                                                 |
| \\      /  F ield         | foam-extend: Open Source CFD                    |
|  \\    /   O peration     | Version:     5.0                                |
|   \\  /    A nd           | Web:         http://www.foam-extend.org         |
|    \\/     M anipulation  |                                                 |
\*---------------------------------------------------------------------------*/
FoamFile
{
    version     2.0;
    format      ascii;
    class       volVectorField;
    location    "0.06";
    object      currentDensity;
}
// * * * * * * * * * * * * * * * * * * * * * * * * * * * * * * * * * * * * * //

dimensions      [0 -2 0 0 0 1 0];

internalField   nonuniform List<vector> 
4000
(
(0 0 -173.927)
(0 0 -334.035)
(0 0 -377.561)
(0 0 -438.468)
(0 0 -360.9)
(0 0 -473.461)
(0 0 -515.147)
(0 0 -503.933)
(0 0 -139.866)
(0 0 -389.389)
(0 0 -662.98)
(0 0 -575.487)
(0 0 -774.863)
(0 0 -948.28)
(0 0 -1115.49)
(0 0 -1300.61)
(0 0 -1346.59)
(0 0 -1563.65)
(0 0 -1716.36)
(0 0 -1854.49)
(0 0 -1685.5)
(0 0 -1764.39)
(0 0 -1813.34)
(0 0 -1937.53)
(0 0 -1675.23)
(0 0 -1909.37)
(0 0 -1969.25)
(0 0 -2138.96)
(0 0 -1522.21)
(0 0 -1544.42)
(0 0 -1587.35)
(0 0 -1534.59)
(0 0 -1352.4)
(0 0 -1252.09)
(0 0 -1110.91)
(0 0 -868.559)
(0 0 -1044.03)
(0 0 -1085.76)
(0 0 -555.414)
(0 0 -539.612)
(0 0 -409.185)
(0 0 -570.939)
(0 0 -248.434)
(0 0 -329.176)
(0 0 369.208)
(0 0 206.391)
(0 0 180.687)
(0 0 142.37)
(0 0 149.895)
(0 0 332.865)
(0 0 965.644)
(0 0 691.43)
(0 0 718.326)
(0 0 339.275)
(0 0 715.518)
(0 0 603.828)
(0 0 652.685)
(0 0 735.519)
(0 0 793.915)
(0 0 1089.37)
(0 0 885.43)
(0 0 861.291)
(0 0 930.792)
(0 0 899.041)
(0 0 545.784)
(0 0 662.82)
(0 0 469.608)
(0 0 577.833)
(0 0 488.585)
(0 0 489.361)
(0 0 429.482)
(0 0 326.204)
(0 0 241.798)
(0 0 278.551)
(0 0 263.297)
(0 0 222.592)
(0 0 249.457)
(0 0 317.127)
(0 0 468.46)
(0 0 522.076)
(0 0 831.663)
(0 0 555.125)
(0 0 463.723)
(0 0 733.246)
(0 0 467.294)
(0 0 380.509)
(0 0 833.055)
(0 0 484.987)
(0 0 869.605)
(0 0 579.175)
(0 0 797.645)
(0 0 249.897)
(0 0 692.966)
(0 0 455.826)
(0 0 399.018)
(0 0 511.923)
(0 0 596.703)
(0 0 1329.72)
(0 0 1877.49)
(0 0 1859.72)
(0 0 -421.929)
(0 0 -724.782)
(0 0 -907.893)
(0 0 -1048.22)
(0 0 -613.663)
(0 0 -879.632)
(0 0 -1096.04)
(0 0 -1160.63)
(0 0 -466.035)
(0 0 -877.247)
(0 0 -1243.32)
(0 0 -949.18)
(0 0 -1590.41)
(0 0 -1944.45)
(0 0 -2283.52)
(0 0 -2730.49)
(0 0 -2432.62)
(0 0 -2981.42)
(0 0 -3412.98)
(0 0 -3163.66)
(0 0 -3662.17)
(0 0 -3817.61)
(0 0 -3901.05)
(0 0 -3404.79)
(0 0 -3111.5)
(0 0 -3584.1)
(0 0 -3643.77)
(0 0 -3865.97)
(0 0 -2954.28)
(0 0 -3149.54)
(0 0 -3264.76)
(0 0 -2697.49)
(0 0 -2417.33)
(0 0 -2553.75)
(0 0 -2326.84)
(0 0 -1552.48)
(0 0 -2048.94)
(0 0 -2175.43)
(0 0 -1412.25)
(0 0 -1327.8)
(0 0 -646.389)
(0 0 -793.652)
(0 0 -275.508)
(0 0 217.862)
(0 0 748.699)
(0 0 302.025)
(0 0 200.016)
(0 0 79.1308)
(0 0 895.507)
(0 0 1116.08)
(0 0 1809.18)
(0 0 1260.35)
(0 0 1729.85)
(0 0 1452.14)
(0 0 1670.74)
(0 0 1178.62)
(0 0 1084.73)
(0 0 1006.76)
(0 0 1768.51)
(0 0 2101.45)
(0 0 2336.12)
(0 0 1772.34)
(0 0 1541.69)
(0 0 1462.11)
(0 0 882.482)
(0 0 1265.55)
(0 0 796.291)
(0 0 752.882)
(0 0 594.287)
(0 0 488.08)
(0 0 825.399)
(0 0 465.413)
(0 0 142.579)
(0 0 155.678)
(0 0 75.8779)
(0 0 616.802)
(0 0 886.943)
(0 0 475.981)
(0 0 444.903)
(0 0 447.145)
(0 0 1070.97)
(0 0 1225.84)
(0 0 788.856)
(0 0 1114.21)
(0 0 906.034)
(0 0 562.961)
(0 0 1293.07)
(0 0 957.726)
(0 0 903.96)
(0 0 640.183)
(0 0 1239.92)
(0 0 645.434)
(0 0 1273.64)
(0 0 859.955)
(0 0 646.763)
(0 0 1506.96)
(0 0 1344.13)
(0 0 2312.53)
(0 0 3184.16)
(0 0 3103.49)
(0 0 -474.472)
(0 0 -827.888)
(0 0 -1108.38)
(0 0 -1314.37)
(0 0 -1309.35)
(0 0 -743.467)
(0 0 -1102.09)
(0 0 -1339.14)
(0 0 -1388.02)
(0 0 -1640.07)
(0 0 -1077.42)
(0 0 -1652.69)
(0 0 -2155.1)
(0 0 -2419.82)
(0 0 -2676.52)
(0 0 -3327.71)
(0 0 -3203.57)
(0 0 -2803.37)
(0 0 -3498.19)
(0 0 -4154.55)
(0 0 -4449.31)
(0 0 -4576.55)
(0 0 -4733.9)
(0 0 -4062.66)
(0 0 -3553.08)
(0 0 -3868.31)
(0 0 -4194.56)
(0 0 -3420.43)
(0 0 -3547.67)
(0 0 -3649.3)
(0 0 -3778.85)
(0 0 -2984.99)
(0 0 -3256.97)
(0 0 -2597.29)
(0 0 -2736.64)
(0 0 -1854.03)
(0 0 -2208.27)
(0 0 -2365.91)
(0 0 -2202.87)
(0 0 -1206.73)
(0 0 -1377.93)
(0 0 -640.04)
(0 0 -126.504)
(0 0 502.693)
(0 0 205.856)
(0 0 -36.3929)
(0 0 755.678)
(0 0 447.511)
(0 0 1331.46)
(0 0 1944.43)
(0 0 1656.25)
(0 0 1296.42)
(0 0 2003.3)
(0 0 2223.74)
(0 0 1771.56)
(0 0 1292.14)
(0 0 1585.69)
(0 0 1097.59)
(0 0 1822.02)
(0 0 2166.98)
(0 0 2416.04)
(0 0 1881.17)
(0 0 1513.38)
(0 0 1209.46)
(0 0 610.036)
(0 0 1149.25)
(0 0 654.589)
(0 0 433.492)
(0 0 211.682)
(0 0 495.93)
(0 0 207.272)
(0 0 642.642)
(0 0 -45.9213)
(0 0 413.686)
(0 0 -44.4427)
(0 0 814.861)
(0 0 279.565)
(0 0 815.472)
(0 0 404.463)
(0 0 315.551)
(0 0 1037.05)
(0 0 682.302)
(0 0 1257.45)
(0 0 769.241)
(0 0 1512.76)
(0 0 931.702)
(0 0 1545.94)
(0 0 1955.4)
(0 0 1367.44)
(0 0 783.927)
(0 0 1082.91)
(0 0 1523.13)
(0 0 1347.85)
(0 0 1002.72)
(0 0 904.164)
(0 0 1632.57)
(0 0 2325.15)
(0 0 2066.86)
(0 0 2351.94)
(0 0 3605.94)
(0 0 -265.413)
(0 0 -688.763)
(0 0 -964.497)
(0 0 -1207.61)
(0 0 -879.051)
(0 0 -1061.82)
(0 0 -535.512)
(0 0 -1081.57)
(0 0 -1433.63)
(0 0 -1800.87)
(0 0 -1084.21)
(0 0 -1917.51)
(0 0 -2220.16)
(0 0 -1949.98)
(0 0 -2826.19)
(0 0 -3017.16)
(0 0 -3259.1)
(0 0 -2817.25)
(0 0 -3031.12)
(0 0 -3905.81)
(0 0 -4430.34)
(0 0 -4714.39)
(0 0 -4942.7)
(0 0 -3940.71)
(0 0 -4496.02)
(0 0 -4767.49)
(0 0 -3880.6)
(0 0 -3181.91)
(0 0 -3698.45)
(0 0 -3858.97)
(0 0 -3672.16)
(0 0 -2811.93)
(0 0 -3283.68)
(0 0 -3192.64)
(0 0 -2730.81)
(0 0 -1994.97)
(0 0 -1817.7)
(0 0 -2054.27)
(0 0 -1726.28)
(0 0 -1728.38)
(0 0 -1682.31)
(0 0 -788.176)
(0 0 -328.64)
(0 0 398.258)
(0 0 136.878)
(0 0 83.939)
(0 0 263.67)
(0 0 1013.32)
(0 0 1802.5)
(0 0 2307.74)
(0 0 1893.66)
(0 0 1515.06)
(0 0 2142.63)
(0 0 2477.04)
(0 0 1696.5)
(0 0 1427)
(0 0 1003.07)
(0 0 875.335)
(0 0 1748.11)
(0 0 1665.29)
(0 0 1254)
(0 0 1900.55)
(0 0 1435.34)
(0 0 1002.39)
(0 0 479.942)
(0 0 1028.2)
(0 0 646.562)
(0 0 414.298)
(0 0 499.007)
(0 0 14.753)
(0 0 -465.735)
(0 0 153.435)
(0 0 -347.642)
(0 0 -453.235)
(0 0 -105.785)
(0 0 780.241)
(0 0 199.145)
(0 0 56.6043)
(0 0 174.114)
(0 0 651.069)
(0 0 429.224)
(0 0 1119.91)
(0 0 1440.57)
(0 0 1492.07)
(0 0 1081.81)
(0 0 1547.18)
(0 0 1109.71)
(0 0 859.591)
(0 0 748.53)
(0 0 821.398)
(0 0 430.737)
(0 0 1232.72)
(0 0 809.233)
(0 0 1521.57)
(0 0 2128.03)
(0 0 1704.87)
(0 0 1589)
(0 0 1471.84)
(0 0 2792.84)
(0 0 3050.9)
(0 0 79.4425)
(0 0 -398.677)
(0 0 -672.462)
(0 0 -1001.45)
(0 0 -966.759)
(0 0 -646.195)
(0 0 -193.986)
(0 0 -761.492)
(0 0 -1180.48)
(0 0 -1511.96)
(0 0 -1014.16)
(0 0 -1696.38)
(0 0 -1491.07)
(0 0 -2079.2)
(0 0 -2406.42)
(0 0 -1974.59)
(0 0 -2927.66)
(0 0 -3045.48)
(0 0 -3697.36)
(0 0 -3306.42)
(0 0 -4164.31)
(0 0 -4694.88)
(0 0 -4964.56)
(0 0 -4030.64)
(0 0 -4640.87)
(0 0 -4866.01)
(0 0 -3841.78)
(0 0 -3183.02)
(0 0 -3762.22)
(0 0 -4021.75)
(0 0 -3095.53)
(0 0 -2501.28)
(0 0 -2876.71)
(0 0 -2767.21)
(0 0 -2747.21)
(0 0 -2780.68)
(0 0 -2561.65)
(0 0 -1398.52)
(0 0 -1591.06)
(0 0 -1545.01)
(0 0 -663.097)
(0 0 -507.691)
(0 0 205.616)
(0 0 -1.08505)
(0 0 772.875)
(0 0 1396.59)
(0 0 1066.06)
(0 0 740.547)
(0 0 1802.25)
(0 0 1465.78)
(0 0 1416)
(0 0 2189.9)
(0 0 1756.23)
(0 0 2423.24)
(0 0 1590.73)
(0 0 1104.36)
(0 0 1001.4)
(0 0 1599.36)
(0 0 1177.42)
(0 0 1016.31)
(0 0 1056.3)
(0 0 737.494)
(0 0 779.272)
(0 0 632.62)
(0 0 983.194)
(0 0 1069.24)
(0 0 1384.22)
(0 0 854.569)
(0 0 1208.8)
(0 0 317.806)
(0 0 -361.649)
(0 0 -666.821)
(0 0 -105.671)
(0 0 -327.035)
(0 0 -537.035)
(0 0 600.74)
(0 0 564.232)
(0 0 504.995)
(0 0 1271.17)
(0 0 1069.25)
(0 0 697.573)
(0 0 1431.22)
(0 0 862.989)
(0 0 678.648)
(0 0 1431.63)
(0 0 930.983)
(0 0 1570.59)
(0 0 1112.44)
(0 0 857.597)
(0 0 406.979)
(0 0 1153.21)
(0 0 730.349)
(0 0 1347.26)
(0 0 960.522)
(0 0 1850.08)
(0 0 1527.3)
(0 0 1474.72)
(0 0 1453.82)
(0 0 2930.51)
(0 0 3237.51)
(0 0 176.404)
(0 0 -79.7259)
(0 0 -308.222)
(0 0 -601.291)
(0 0 -949.464)
(0 0 -1223.59)
(0 0 -488.65)
(0 0 -210.64)
(0 0 -883.621)
(0 0 -606.518)
(0 0 -599.265)
(0 0 -819.196)
(0 0 -1657.02)
(0 0 -1268.82)
(0 0 -1149.09)
(0 0 -1811.04)
(0 0 -2738.89)
(0 0 -3309.37)
(0 0 -3860.41)
(0 0 -3297.92)
(0 0 -4306.77)
(0 0 -4656.72)
(0 0 -4849.85)
(0 0 -4815.93)
(0 0 -4638.62)
(0 0 -3925.49)
(0 0 -3433.25)
(0 0 -3628.48)
(0 0 -3951.74)
(0 0 -4016.63)
(0 0 -3109.32)
(0 0 -2586.47)
(0 0 -2141.73)
(0 0 -1624.86)
(0 0 -1839.68)
(0 0 -2170.6)
(0 0 -1451.69)
(0 0 -622.967)
(0 0 -695.633)
(0 0 -786.647)
(0 0 142.847)
(0 0 766.433)
(0 0 413.238)
(0 0 1068.94)
(0 0 699.776)
(0 0 1187.04)
(0 0 1993.71)
(0 0 1382.32)
(0 0 2339.71)
(0 0 1793.95)
(0 0 2389.77)
(0 0 2779.53)
(0 0 2047.75)
(0 0 2546.78)
(0 0 1746.71)
(0 0 1221.6)
(0 0 1943.6)
(0 0 1363.22)
(0 0 909.499)
(0 0 612.557)
(0 0 1442.08)
(0 0 751.833)
(0 0 700.173)
(0 0 1114.18)
(0 0 1529.27)
(0 0 817.685)
(0 0 542.996)
(0 0 1198.43)
(0 0 734.088)
(0 0 97.3347)
(0 0 -357.52)
(0 0 -485.591)
(0 0 -459.876)
(0 0 283.074)
(0 0 -27.9295)
(0 0 940.278)
(0 0 1552.13)
(0 0 2124.6)
(0 0 1515.07)
(0 0 1958.57)
(0 0 2122.64)
(0 0 1510.15)
(0 0 972.27)
(0 0 1662.23)
(0 0 1390.3)
(0 0 1114.66)
(0 0 837.561)
(0 0 1787.75)
(0 0 1573.87)
(0 0 893.771)
(0 0 1677.85)
(0 0 1017.43)
(0 0 831.205)
(0 0 1514.92)
(0 0 1230.89)
(0 0 1374.71)
(0 0 1557.35)
(0 0 2353.43)
(0 0 2858.76)
(0 0 3661.17)
(0 0 175.248)
(0 0 -140.325)
(0 0 -2.47654)
(0 0 -110.441)
(0 0 -549.933)
(0 0 -1032.32)
(0 0 -1172.96)
(0 0 -493.366)
(0 0 -919.751)
(0 0 -1151.59)
(0 0 -1314.82)
(0 0 -917.75)
(0 0 -1814.2)
(0 0 -1285.09)
(0 0 -1068.63)
(0 0 -1100.25)
(0 0 -2180.35)
(0 0 -3101.86)
(0 0 -3537.94)
(0 0 -3233.16)
(0 0 -4260.85)
(0 0 -4496.77)
(0 0 -4421.28)
(0 0 -4617.36)
(0 0 -3844.97)
(0 0 -3471.49)
(0 0 -3333.36)
(0 0 -3805.5)
(0 0 -3987.04)
(0 0 -3218.54)
(0 0 -2754.97)
(0 0 -2677.22)
(0 0 -2694.65)
(0 0 -1750.51)
(0 0 -1142.57)
(0 0 -817.541)
(0 0 -1065.33)
(0 0 22.1437)
(0 0 342.311)
(0 0 121.233)
(0 0 967.82)
(0 0 1561.53)
(0 0 1914.91)
(0 0 1236.75)
(0 0 979.308)
(0 0 1801.46)
(0 0 2446.59)
(0 0 1947.67)
(0 0 2837.64)
(0 0 2277.13)
(0 0 2086.31)
(0 0 2028.68)
(0 0 2491.05)
(0 0 2054.48)
(0 0 2408.93)
(0 0 1609.31)
(0 0 2097.61)
(0 0 1378.49)
(0 0 1024.15)
(0 0 662.565)
(0 0 1591.26)
(0 0 935.807)
(0 0 921.998)
(0 0 1449.1)
(0 0 1788.76)
(0 0 1014.04)
(0 0 580.212)
(0 0 545.752)
(0 0 1101.06)
(0 0 293.814)
(0 0 -171.852)
(0 0 314.381)
(0 0 576.633)
(0 0 386.845)
(0 0 945.858)
(0 0 907.75)
(0 0 1697.32)
(0 0 2348.97)
(0 0 1854.1)
(0 0 1423.73)
(0 0 2233.07)
(0 0 1934.19)
(0 0 1351.13)
(0 0 2070.16)
(0 0 2330.19)
(0 0 2012.39)
(0 0 1356.23)
(0 0 2320.03)
(0 0 1785.67)
(0 0 2049.5)
(0 0 2175.1)
(0 0 1381.42)
(0 0 1920.78)
(0 0 1424.16)
(0 0 1303.53)
(0 0 2230.99)
(0 0 1943.7)
(0 0 2914.69)
(0 0 3363.52)
(0 0 4487.47)
(0 0 267.491)
(0 0 -248.888)
(0 0 -174.734)
(0 0 -339.708)
(0 0 -181.366)
(0 0 -661.293)
(0 0 -1096.8)
(0 0 -1106.44)
(0 0 -542.113)
(0 0 -599.033)
(0 0 -640.456)
(0 0 -975.776)
(0 0 -1769.2)
(0 0 -1878.4)
(0 0 -1489.3)
(0 0 -1552.2)
(0 0 -1599.36)
(0 0 -2739.24)
(0 0 -3619.19)
(0 0 -3826.31)
(0 0 -3786.52)
(0 0 -4529.68)
(0 0 -4521.71)
(0 0 -3986.43)
(0 0 -4179.72)
(0 0 -3551.63)
(0 0 -3199.6)
(0 0 -3788.8)
(0 0 -3821.35)
(0 0 -3012.8)
(0 0 -3212.04)
(0 0 -2761.75)
(0 0 -2508.14)
(0 0 -1822.28)
(0 0 -949.734)
(0 0 -340.117)
(0 0 34.7717)
(0 0 840.445)
(0 0 821.246)
(0 0 1072.8)
(0 0 1835.16)
(0 0 1763.75)
(0 0 2317.61)
(0 0 1618.73)
(0 0 1416.03)
(0 0 2104.89)
(0 0 2683.99)
(0 0 2504.62)
(0 0 3287.3)
(0 0 2710.3)
(0 0 2135.04)
(0 0 2760.65)
(0 0 2319.82)
(0 0 1884.99)
(0 0 2468.55)
(0 0 1716.15)
(0 0 1390.81)
(0 0 1165.06)
(0 0 1702.25)
(0 0 1011.34)
(0 0 1890.22)
(0 0 1349.79)
(0 0 1779.95)
(0 0 1243.5)
(0 0 1809.38)
(0 0 1112.78)
(0 0 706.96)
(0 0 407.527)
(0 0 1138.79)
(0 0 413.777)
(0 0 13.7208)
(0 0 -141.993)
(0 0 703.59)
(0 0 1134)
(0 0 1106)
(0 0 1947.65)
(0 0 1567.56)
(0 0 2162.08)
(0 0 2598.92)
(0 0 1852.73)
(0 0 2441.21)
(0 0 1928.4)
(0 0 1570.36)
(0 0 2299.61)
(0 0 1983.33)
(0 0 2549.94)
(0 0 1819.94)
(0 0 2593.08)
(0 0 1853.36)
(0 0 1663.41)
(0 0 1584.51)
(0 0 2039.78)
(0 0 1659.68)
(0 0 1516.66)
(0 0 2224.29)
(0 0 2621.95)
(0 0 2231.94)
(0 0 3268.14)
(0 0 3781.04)
(0 0 4882.11)
(0 0 347.442)
(0 0 -192.67)
(0 0 -67.6598)
(0 0 -150.865)
(0 0 -418.862)
(0 0 -211.16)
(0 0 -677.652)
(0 0 -998.136)
(0 0 -1111.58)
(0 0 -533.916)
(0 0 -1043.7)
(0 0 -1612.17)
(0 0 -1338.33)
(0 0 -1366.29)
(0 0 -2044.77)
(0 0 -1797.89)
(0 0 -1996.23)
(0 0 -2958.33)
(0 0 -3562.05)
(0 0 -3735.77)
(0 0 -4346.72)
(0 0 -4543.03)
(0 0 -4330.23)
(0 0 -3887.09)
(0 0 -4109.7)
(0 0 -3404.23)
(0 0 -3520.98)
(0 0 -3651.98)
(0 0 -3252.33)
(0 0 -2773.21)
(0 0 -2829.55)
(0 0 -2264.36)
(0 0 -1650.8)
(0 0 -805.477)
(0 0 -651.554)
(0 0 121.349)
(0 0 628.749)
(0 0 1418.06)
(0 0 1784.81)
(0 0 2518.95)
(0 0 2322.14)
(0 0 3087.01)
(0 0 2637.86)
(0 0 2078.86)
(0 0 2015.3)
(0 0 2724.97)
(0 0 3371.64)
(0 0 3673.62)
(0 0 3092.09)
(0 0 3507.62)
(0 0 2702.26)
(0 0 3285.72)
(0 0 2659.6)
(0 0 2046.44)
(0 0 2471.3)
(0 0 1867.39)
(0 0 1579)
(0 0 1485.41)
(0 0 1473.99)
(0 0 1498.53)
(0 0 2225.23)
(0 0 1674.77)
(0 0 1492.58)
(0 0 1152.98)
(0 0 1804.55)
(0 0 1304.53)
(0 0 979.654)
(0 0 610.865)
(0 0 1245.33)
(0 0 655.604)
(0 0 530.914)
(0 0 239.836)
(0 0 1032.05)
(0 0 1261.67)
(0 0 2066.29)
(0 0 2033.01)
(0 0 1871)
(0 0 1815.51)
(0 0 2456.43)
(0 0 2640.31)
(0 0 2092.85)
(0 0 2588.45)
(0 0 2089.88)
(0 0 2564.71)
(0 0 2697.75)
(0 0 2761.67)
(0 0 2157.13)
(0 0 1975.47)
(0 0 1658.81)
(0 0 2101.95)
(0 0 2371.37)
(0 0 1935.37)
(0 0 1711.93)
(0 0 2343.18)
(0 0 2792.14)
(0 0 2554.39)
(0 0 2524.87)
(0 0 3368.14)
(0 0 3726.49)
(0 0 2947.88)
(0 0 404.004)
(0 0 -135.33)
(0 0 -181.86)
(0 0 -232.581)
(0 0 -307.841)
(0 0 -395.605)
(0 0 -207.234)
(0 0 -631.342)
(0 0 -986.666)
(0 0 -1049.97)
(0 0 -818.474)
(0 0 -1529.15)
(0 0 -1927.32)
(0 0 -1620.14)
(0 0 -2176.16)
(0 0 -2674.44)
(0 0 -2452.92)
(0 0 -3261.31)
(0 0 -3474.46)
(0 0 -3925.15)
(0 0 -4203.24)
(0 0 -3766.26)
(0 0 -3603.87)
(0 0 -3290.39)
(0 0 -3510.92)
(0 0 -3281.45)
(0 0 -3570.73)
(0 0 -3152.05)
(0 0 -2800.82)
(0 0 -2239.65)
(0 0 -1859.57)
(0 0 -1225.19)
(0 0 -437.193)
(0 0 203.837)
(0 0 285.06)
(0 0 942.024)
(0 0 1099.38)
(0 0 1991.97)
(0 0 2788.4)
(0 0 3222.39)
(0 0 3086.25)
(0 0 3650.05)
(0 0 3009.46)
(0 0 2791.14)
(0 0 3175.01)
(0 0 2983.91)
(0 0 3914.01)
(0 0 3568.89)
(0 0 3187.72)
(0 0 2987.85)
(0 0 3457.17)
(0 0 3742.36)
(0 0 2936.3)
(0 0 2325)
(0 0 2036.56)
(0 0 2456.63)
(0 0 1918.46)
(0 0 2363.19)
(0 0 2214.94)
(0 0 2378.25)
(0 0 2077.98)
(0 0 1754.05)
(0 0 1665.52)
(0 0 1844.35)
(0 0 1566.9)
(0 0 1937.57)
(0 0 1561.04)
(0 0 1049.95)
(0 0 988.31)
(0 0 1358.85)
(0 0 1634.5)
(0 0 1123.65)
(0 0 1325.02)
(0 0 2267.7)
(0 0 2515.84)
(0 0 2896.66)
(0 0 2426.69)
(0 0 2704.41)
(0 0 2317.82)
(0 0 2810.41)
(0 0 2148.72)
(0 0 2722.64)
(0 0 2543.89)
(0 0 2427.71)
(0 0 2459.83)
(0 0 2384.95)
(0 0 2607.17)
(0 0 2122.1)
(0 0 1764.43)
(0 0 2156.38)
(0 0 2522.8)
(0 0 2014.44)
(0 0 2407.37)
(0 0 2788.4)
(0 0 2787.35)
(0 0 2578.5)
(0 0 2826.21)
(0 0 3309.3)
(0 0 3363.27)
(0 0 2209.66)
(0 0 412.405)
(0 0 -106.439)
(0 0 -336.837)
(0 0 -369.54)
(0 0 -440.824)
(0 0 -229.548)
(0 0 -424.182)
(0 0 -205.925)
(0 0 -687.335)
(0 0 -757.976)
(0 0 -1193)
(0 0 -1153.59)
(0 0 -1826.41)
(0 0 -2104.4)
(0 0 -1826.98)
(0 0 -2753.56)
(0 0 -3137.52)
(0 0 -3000.12)
(0 0 -3354.3)
(0 0 -3679.55)
(0 0 -3429.86)
(0 0 -3244.82)
(0 0 -3045.93)
(0 0 -2635.22)
(0 0 -2877.65)
(0 0 -2905.81)
(0 0 -2481.48)
(0 0 -2598.87)
(0 0 -1585.13)
(0 0 -1383.33)
(0 0 -477.067)
(0 0 85.7883)
(0 0 356.157)
(0 0 1006.98)
(0 0 912.585)
(0 0 2019.26)
(0 0 2149.88)
(0 0 2736.75)
(0 0 3641.34)
(0 0 3896.79)
(0 0 3865.06)
(0 0 3826.89)
(0 0 3859.54)
(0 0 3726.64)
(0 0 3450.76)
(0 0 3880.08)
(0 0 4137.82)
(0 0 4285.09)
(0 0 4079.31)
(0 0 3268.66)
(0 0 3850.14)
(0 0 3380.34)
(0 0 2916.4)
(0 0 2891.62)
(0 0 2360.5)
(0 0 2691.27)
(0 0 2411.42)
(0 0 2599.86)
(0 0 2827.79)
(0 0 2643.9)
(0 0 2214.5)
(0 0 1985.1)
(0 0 2414.13)
(0 0 2131.69)
(0 0 2197.8)
(0 0 1946.95)
(0 0 2118.5)
(0 0 1670.7)
(0 0 1696.71)
(0 0 1485.53)
(0 0 2063.39)
(0 0 1995.53)
(0 0 2211.08)
(0 0 2821.33)
(0 0 3022.35)
(0 0 2999.28)
(0 0 2638.2)
(0 0 2496.06)
(0 0 2761.25)
(0 0 2788.09)
(0 0 2421.13)
(0 0 2599.95)
(0 0 3364.7)
(0 0 3144.73)
(0 0 3338.22)
(0 0 2829.44)
(0 0 2892.97)
(0 0 2366.9)
(0 0 2046.45)
(0 0 2185.07)
(0 0 2257.5)
(0 0 2217.94)
(0 0 2609.93)
(0 0 2837.75)
(0 0 2906.17)
(0 0 2679.06)
(0 0 2973.87)
(0 0 3090.83)
(0 0 2827.52)
(0 0 1277.95)
(0 0 441.441)
(0 0 -126.709)
(0 0 -303.085)
(0 0 -277.677)
(0 0 -355.526)
(0 0 -280.164)
(0 0 -347.857)
(0 0 -362.333)
(0 0 -478.071)
(0 0 -870.515)
(0 0 -1287.98)
(0 0 -1626.41)
(0 0 -1463.06)
(0 0 -1918.6)
(0 0 -1921.47)
(0 0 -2566.45)
(0 0 -2925.15)
(0 0 -2695.21)
(0 0 -2926.01)
(0 0 -3036.21)
(0 0 -2614.09)
(0 0 -1908.27)
(0 0 -1927.77)
(0 0 -2320.05)
(0 0 -1660.82)
(0 0 -1915.94)
(0 0 -1119.53)
(0 0 -575.684)
(0 0 109.917)
(0 0 324.922)
(0 0 940.218)
(0 0 840.119)
(0 0 1711.99)
(0 0 1537.57)
(0 0 1802.93)
(0 0 2557.64)
(0 0 3219.36)
(0 0 3074.27)
(0 0 4048.66)
(0 0 4423.65)
(0 0 4103.5)
(0 0 4269.05)
(0 0 4261.55)
(0 0 4197.41)
(0 0 4057.61)
(0 0 3961.06)
(0 0 3811.95)
(0 0 4137.38)
(0 0 3652.23)
(0 0 3320.05)
(0 0 3836.09)
(0 0 3288.84)
(0 0 3217.99)
(0 0 2772.18)
(0 0 2680.64)
(0 0 2638.3)
(0 0 2993.2)
(0 0 3321.09)
(0 0 3220.68)
(0 0 2589.28)
(0 0 2547.49)
(0 0 2376.76)
(0 0 2956.5)
(0 0 2641.56)
(0 0 2232.9)
(0 0 2235.16)
(0 0 2660.51)
(0 0 2274.04)
(0 0 1761.11)
(0 0 2036.86)
(0 0 2856.72)
(0 0 2888.39)
(0 0 2995.68)
(0 0 3399.09)
(0 0 3297.95)
(0 0 3167.13)
(0 0 2909.53)
(0 0 2671.62)
(0 0 3127.38)
(0 0 2999.91)
(0 0 2877.01)
(0 0 3215.24)
(0 0 3681.1)
(0 0 3763.01)
(0 0 3634.05)
(0 0 3447.14)
(0 0 3223.18)
(0 0 2328.59)
(0 0 2580.57)
(0 0 2517.29)
(0 0 2395.95)
(0 0 2464.24)
(0 0 3002.01)
(0 0 2861.18)
(0 0 3020.02)
(0 0 2750.83)
(0 0 2937.5)
(0 0 2715.52)
(0 0 2147.23)
(0 0 1030.78)
(0 0 467.864)
(0 0 -119.506)
(0 0 -236.431)
(0 0 -175.382)
(0 0 -280.461)
(0 0 -186.925)
(0 0 -185.762)
(0 0 -233.929)
(0 0 -314.076)
(0 0 -646.718)
(0 0 -1034.84)
(0 0 -1541.35)
(0 0 -1454.81)
(0 0 -1667)
(0 0 -1767.33)
(0 0 -2166.66)
(0 0 -2248.45)
(0 0 -2013.66)
(0 0 -2321.33)
(0 0 -2072.21)
(0 0 -1927.32)
(0 0 -1735.86)
(0 0 -1580.03)
(0 0 -792.175)
(0 0 -577.174)
(0 0 -1088.5)
(0 0 -46.6383)
(0 0 -130.8)
(0 0 928.464)
(0 0 2080.22)
(0 0 2056.14)
(0 0 2554.07)
(0 0 2473.62)
(0 0 3409.4)
(0 0 3474.41)
(0 0 3102.46)
(0 0 3635.26)
(0 0 3731.68)
(0 0 4713.17)
(0 0 4512.8)
(0 0 4662.92)
(0 0 4453.39)
(0 0 4836.05)
(0 0 4865.5)
(0 0 4555.08)
(0 0 4290.73)
(0 0 4019.15)
(0 0 4134)
(0 0 3724.77)
(0 0 3114.73)
(0 0 3751.56)
(0 0 3274.29)
(0 0 3222.16)
(0 0 2755.15)
(0 0 2659.6)
(0 0 2713.46)
(0 0 3389.4)
(0 0 3496.71)
(0 0 3342.97)
(0 0 2945.19)
(0 0 2484.25)
(0 0 3261.48)
(0 0 3657.02)
(0 0 3578.26)
(0 0 3008.5)
(0 0 3135.09)
(0 0 3066.89)
(0 0 2862.82)
(0 0 2510.64)
(0 0 2899.84)
(0 0 3529.41)
(0 0 3268.23)
(0 0 3723.65)
(0 0 3790.03)
(0 0 3393.05)
(0 0 3141.33)
(0 0 2911.14)
(0 0 3277.85)
(0 0 2989.8)
(0 0 3476.16)
(0 0 3450.02)
(0 0 3300.08)
(0 0 4201.03)
(0 0 4224.04)
(0 0 4072.61)
(0 0 3810.51)
(0 0 3477.9)
(0 0 2614.91)
(0 0 3082.88)
(0 0 2883.34)
(0 0 2946.67)
(0 0 2697.65)
(0 0 3226.67)
(0 0 3029.71)
(0 0 2781.68)
(0 0 2884.65)
(0 0 2618.57)
(0 0 2276.79)
(0 0 2474.57)
(0 0 1719.01)
(0 0 415.893)
(0 0 -122.423)
(0 0 -157.918)
(0 0 -103.505)
(0 0 -177.627)
(0 0 -43.5995)
(0 0 -18.1616)
(0 0 -120.748)
(0 0 -284.526)
(0 0 -603.579)
(0 0 -1022.8)
(0 0 -1363.23)
(0 0 -1298.04)
(0 0 -1308.65)
(0 0 -1445.7)
(0 0 -1713.47)
(0 0 -1344.81)
(0 0 -1107.51)
(0 0 -1258.49)
(0 0 -1516.41)
(0 0 -733.381)
(0 0 -898.485)
(0 0 -1292.89)
(0 0 -747.926)
(0 0 28.442)
(0 0 -255.9)
(0 0 822.008)
(0 0 2146.62)
(0 0 2616.15)
(0 0 3180.91)
(0 0 3411.84)
(0 0 3307.26)
(0 0 3843.65)
(0 0 3669.04)
(0 0 4661.61)
(0 0 4751.8)
(0 0 4983.67)
(0 0 4319.12)
(0 0 5007.48)
(0 0 4425.67)
(0 0 4713.01)
(0 0 5332.43)
(0 0 5500.92)
(0 0 5229.57)
(0 0 5272.44)
(0 0 4453.94)
(0 0 4286.29)
(0 0 4119.76)
(0 0 3669.21)
(0 0 3073.48)
(0 0 3440.43)
(0 0 2919.11)
(0 0 3195.65)
(0 0 2868.9)
(0 0 2680.6)
(0 0 2504.15)
(0 0 3188.7)
(0 0 2832.49)
(0 0 3322.04)
(0 0 2919.99)
(0 0 2792.22)
(0 0 3626.6)
(0 0 3501.14)
(0 0 3841.34)
(0 0 3547.45)
(0 0 3345.02)
(0 0 2775.75)
(0 0 3577.63)
(0 0 3192.75)
(0 0 3076.57)
(0 0 4023.66)
(0 0 4145.36)
(0 0 3648.48)
(0 0 3959.86)
(0 0 3484.94)
(0 0 2877.23)
(0 0 3493.38)
(0 0 3524.73)
(0 0 3620.35)
(0 0 3271.41)
(0 0 4144.25)
(0 0 3448.31)
(0 0 4096.97)
(0 0 4141.48)
(0 0 3830.11)
(0 0 3252.86)
(0 0 3873.82)
(0 0 3595.34)
(0 0 3339.57)
(0 0 3844.43)
(0 0 3657.34)
(0 0 3225.5)
(0 0 2658.75)
(0 0 2619.54)
(0 0 2962.29)
(0 0 2720.28)
(0 0 2915.91)
(0 0 2584.34)
(0 0 2860.2)
(0 0 2282.02)
(0 0 389.557)
(0 0 -19.2278)
(0 0 107.878)
(0 0 241.877)
(0 0 123.398)
(0 0 255.227)
(0 0 115.402)
(0 0 -94.1133)
(0 0 -431.172)
(0 0 -860.188)
(0 0 -672.186)
(0 0 -823.845)
(0 0 -864.641)
(0 0 -920.138)
(0 0 -1395.6)
(0 0 -991.106)
(0 0 -591.738)
(0 0 -1071.96)
(0 0 -550.207)
(0 0 -66.4139)
(0 0 220.908)
(0 0 45.5307)
(0 0 -17.9582)
(0 0 -263.342)
(0 0 330.074)
(0 0 1240.77)
(0 0 1249.19)
(0 0 2340.74)
(0 0 2002.73)
(0 0 2757.97)
(0 0 3738.62)
(0 0 3528.83)
(0 0 4360.52)
(0 0 4075.94)
(0 0 4446.57)
(0 0 5236.13)
(0 0 5365.16)
(0 0 4956.34)
(0 0 5598.94)
(0 0 5280.9)
(0 0 5186.02)
(0 0 5574.24)
(0 0 5265.02)
(0 0 6018.07)
(0 0 5749.2)
(0 0 4903.63)
(0 0 4161.42)
(0 0 4002.22)
(0 0 3274.71)
(0 0 3761.65)
(0 0 2806.64)
(0 0 2544.48)
(0 0 2888.04)
(0 0 3039.31)
(0 0 2776.06)
(0 0 2191.19)
(0 0 2535.69)
(0 0 2862.38)
(0 0 2522.38)
(0 0 2861.49)
(0 0 3440.27)
(0 0 4126.94)
(0 0 3949.22)
(0 0 3631.5)
(0 0 4118.74)
(0 0 3770.61)
(0 0 3167.29)
(0 0 4193.4)
(0 0 4092.33)
(0 0 3925)
(0 0 3867.61)
(0 0 4742.55)
(0 0 4751.31)
(0 0 4456.73)
(0 0 3853)
(0 0 3307.98)
(0 0 4196.02)
(0 0 3813.87)
(0 0 3128.46)
(0 0 3800.77)
(0 0 4886.48)
(0 0 4145.21)
(0 0 3155.17)
(0 0 3549.96)
(0 0 2969.02)
(0 0 2868.16)
(0 0 3148.95)
(0 0 3548.88)
(0 0 4507.01)
(0 0 4394.63)
(0 0 4233.99)
(0 0 3904.83)
(0 0 3327.49)
(0 0 2959.89)
(0 0 2415.56)
(0 0 2564.09)
(0 0 3027.17)
(0 0 2941.65)
(0 0 3400.55)
(0 0 2491.56)
(0 0 476.611)
(0 0 210.848)
(0 0 331.217)
(0 0 417.627)
(0 0 83.9738)
(0 0 395.535)
(0 0 154.456)
(0 0 -197.298)
(0 0 -667.376)
(0 0 -621.367)
(0 0 -226.364)
(0 0 -340.204)
(0 0 -316.128)
(0 0 -489.801)
(0 0 -1050.74)
(0 0 -693.265)
(0 0 -197.53)
(0 0 -784.675)
(0 0 -141.782)
(0 0 742.842)
(0 0 494.094)
(0 0 1231.35)
(0 0 1235.52)
(0 0 1254.54)
(0 0 858.506)
(0 0 1964.81)
(0 0 2128.24)
(0 0 3405.46)
(0 0 3221.45)
(0 0 4328.15)
(0 0 4039.25)
(0 0 5149.2)
(0 0 4973.84)
(0 0 5918.75)
(0 0 5692.5)
(0 0 4846.65)
(0 0 5720.11)
(0 0 5311.03)
(0 0 5842.87)
(0 0 5191.73)
(0 0 5996.11)
(0 0 5554.01)
(0 0 5912.62)
(0 0 6080.06)
(0 0 5887.19)
(0 0 5087.71)
(0 0 5207.96)
(0 0 4039.55)
(0 0 3321.89)
(0 0 3889.38)
(0 0 3145.32)
(0 0 2227.66)
(0 0 2625.32)
(0 0 3334.56)
(0 0 3166.33)
(0 0 2703.26)
(0 0 2296.95)
(0 0 2598.65)
(0 0 3210.7)
(0 0 2862.8)
(0 0 3482.41)
(0 0 4301.03)
(0 0 4214.38)
(0 0 3764.14)
(0 0 4823.52)
(0 0 4280.54)
(0 0 3619.32)
(0 0 4477.3)
(0 0 4409.02)
(0 0 3956.61)
(0 0 3673.41)
(0 0 4200.31)
(0 0 4999.18)
(0 0 4713.06)
(0 0 4224.56)
(0 0 3764.47)
(0 0 4341.34)
(0 0 3950.49)
(0 0 4129.49)
(0 0 5021.96)
(0 0 5117.84)
(0 0 4857.34)
(0 0 3993.7)
(0 0 3369.15)
(0 0 3982.15)
(0 0 3805.94)
(0 0 3016.85)
(0 0 3510.75)
(0 0 4122.37)
(0 0 3794.53)
(0 0 4487.13)
(0 0 4325.69)
(0 0 3821.56)
(0 0 3276.45)
(0 0 2822.47)
(0 0 2391.76)
(0 0 2527.61)
(0 0 2971.15)
(0 0 3417.67)
(0 0 2146.87)
(0 0 670.914)
(0 0 315.623)
(0 0 404.709)
(0 0 503.419)
(0 0 319.72)
(0 0 486.727)
(0 0 40.0404)
(0 0 -184.914)
(0 0 99.291)
(0 0 229.777)
(0 0 366.565)
(0 0 -243.561)
(0 0 282.034)
(0 0 -8.10272)
(0 0 -381.548)
(0 0 166.112)
(0 0 -199.574)
(0 0 325.053)
(0 0 466.67)
(0 0 1191.12)
(0 0 1803.04)
(0 0 2047.92)
(0 0 2309.31)
(0 0 2033.03)
(0 0 1653.18)
(0 0 2595.19)
(0 0 3841.68)
(0 0 4072.89)
(0 0 5178.87)
(0 0 5134.52)
(0 0 4831.79)
(0 0 5945.99)
(0 0 5618.59)
(0 0 6662.21)
(0 0 6614.37)
(0 0 5992.21)
(0 0 6696.09)
(0 0 6471.3)
(0 0 6368.05)
(0 0 5648)
(0 0 6023.63)
(0 0 6406.02)
(0 0 6209.95)
(0 0 6276.05)
(0 0 5775.68)
(0 0 6407.28)
(0 0 5840.04)
(0 0 4815.07)
(0 0 3835.12)
(0 0 4006.02)
(0 0 3412.99)
(0 0 2315.09)
(0 0 2981.43)
(0 0 2585.45)
(0 0 2888.55)
(0 0 3566.14)
(0 0 3554.4)
(0 0 3329.85)
(0 0 2725.37)
(0 0 3123.44)
(0 0 3933.52)
(0 0 3608.55)
(0 0 3267.33)
(0 0 4025.45)
(0 0 5337.26)
(0 0 4810.74)
(0 0 4161.32)
(0 0 3591.65)
(0 0 4549.37)
(0 0 4318.05)
(0 0 3539.19)
(0 0 3984.48)
(0 0 4782.4)
(0 0 4624.82)
(0 0 4120.06)
(0 0 4747.02)
(0 0 4350.05)
(0 0 5111.56)
(0 0 4815.31)
(0 0 4019.32)
(0 0 5085.59)
(0 0 5002.73)
(0 0 4611.55)
(0 0 4110.62)
(0 0 3357.28)
(0 0 4158.18)
(0 0 3487.5)
(0 0 4037.14)
(0 0 3471.33)
(0 0 4035.67)
(0 0 3499.57)
(0 0 4118.66)
(0 0 3932.77)
(0 0 3305.23)
(0 0 2927.92)
(0 0 2823.23)
(0 0 2602.38)
(0 0 1983.65)
(0 0 2588)
(0 0 1083.37)
(0 0 698.382)
(0 0 358.153)
(0 0 497.895)
(0 0 372.461)
(0 0 160.23)
(0 0 555.455)
(0 0 -113.155)
(0 0 776.243)
(0 0 579.451)
(0 0 -11.3202)
(0 0 999.427)
(0 0 855.319)
(0 0 892.296)
(0 0 761.063)
(0 0 358.341)
(0 0 -136.463)
(0 0 -76.755)
(0 0 375.158)
(0 0 1331.78)
(0 0 1496.5)
(0 0 2263.51)
(0 0 2541.24)
(0 0 3247.41)
(0 0 3630.83)
(0 0 3531.12)
(0 0 3796.14)
(0 0 5209.72)
(0 0 5507.05)
(0 0 5676.3)
(0 0 5272.21)
(0 0 6035.22)
(0 0 6717.31)
(0 0 6254.02)
(0 0 6999.68)
(0 0 6452.27)
(0 0 6821.29)
(0 0 7571.74)
(0 0 6887.21)
(0 0 6221.26)
(0 0 6720.5)
(0 0 7051.65)
(0 0 6399.04)
(0 0 6127.34)
(0 0 5736.8)
(0 0 6270.19)
(0 0 6798.76)
(0 0 5919.48)
(0 0 4899.59)
(0 0 5278.19)
(0 0 4625.56)
(0 0 4042.41)
(0 0 3170.43)
(0 0 2460.55)
(0 0 2938.24)
(0 0 4151.61)
(0 0 4700.46)
(0 0 4477.08)
(0 0 3946.42)
(0 0 3227.79)
(0 0 3909.22)
(0 0 3430.33)
(0 0 4008.15)
(0 0 3502.81)
(0 0 4288.42)
(0 0 4105.02)
(0 0 4559.75)
(0 0 3981.74)
(0 0 3149.2)
(0 0 3668.26)
(0 0 4722.9)
(0 0 4497.3)
(0 0 3990.04)
(0 0 4351.97)
(0 0 3777.82)
(0 0 4849.75)
(0 0 4495.75)
(0 0 5151.68)
(0 0 4842.87)
(0 0 4524.82)
(0 0 3669.16)
(0 0 4777.86)
(0 0 4878.52)
(0 0 4502.26)
(0 0 4023.87)
(0 0 3355.22)
(0 0 4061.24)
(0 0 3220.86)
(0 0 3735.96)
(0 0 4020.14)
(0 0 3642.89)
(0 0 2989.28)
(0 0 2574.67)
(0 0 3231)
(0 0 2584.4)
(0 0 2787.07)
(0 0 2162.6)
(0 0 2330.16)
(0 0 1777.69)
(0 0 1517.53)
(0 0 -53.6221)
(0 0 628.861)
(0 0 391.314)
(0 0 524.221)
(0 0 459.491)
(0 0 1010.92)
(0 0 626.057)
(0 0 250.666)
(0 0 997.808)
(0 0 648.355)
(0 0 99.4983)
(0 0 1159.99)
(0 0 1616.42)
(0 0 1572.52)
(0 0 1239.92)
(0 0 837.343)
(0 0 242.45)
(0 0 860.97)
(0 0 642.719)
(0 0 1551.71)
(0 0 2654.71)
(0 0 3408.08)
(0 0 3779.77)
(0 0 3404.53)
(0 0 4662.37)
(0 0 5170.16)
(0 0 5016.23)
(0 0 5064.77)
(0 0 6000.32)
(0 0 7433.96)
(0 0 7369.17)
(0 0 8494.56)
(0 0 8368.78)
(0 0 8304.94)
(0 0 8007.42)
(0 0 9044.94)
(0 0 9182.81)
(0 0 8806.4)
(0 0 8168.77)
(0 0 7549.08)
(0 0 8260.91)
(0 0 7741.97)
(0 0 6835.76)
(0 0 6146.32)
(0 0 6508.79)
(0 0 7061.3)
(0 0 6791.85)
(0 0 6001.06)
(0 0 5237.57)
(0 0 5431.3)
(0 0 5734.72)
(0 0 5313.65)
(0 0 4949.49)
(0 0 4343.69)
(0 0 4369.3)
(0 0 4292.48)
(0 0 5291.58)
(0 0 5411.64)
(0 0 5054.65)
(0 0 4648.55)
(0 0 4125.96)
(0 0 4937.01)
(0 0 4762.82)
(0 0 4399.65)
(0 0 3867.54)
(0 0 4584.77)
(0 0 4230.42)
(0 0 4697.82)
(0 0 4098.82)
(0 0 3241.77)
(0 0 3942.82)
(0 0 4550.53)
(0 0 5078.07)
(0 0 5024.19)
(0 0 4350.83)
(0 0 3888.46)
(0 0 4830.74)
(0 0 4492.67)
(0 0 3777.08)
(0 0 3232.23)
(0 0 2914.81)
(0 0 3693.31)
(0 0 3470.68)
(0 0 4120.09)
(0 0 3861.36)
(0 0 4303.55)
(0 0 4007.47)
(0 0 3059.11)
(0 0 3415.24)
(0 0 2397.98)
(0 0 2267.11)
(0 0 2702.66)
(0 0 2539.64)
(0 0 3080.83)
(0 0 2774.6)
(0 0 1852.06)
(0 0 2003.58)
(0 0 1171.36)
(0 0 1113.67)
(0 0 530.405)
(0 0 -1161.88)
(0 0 740.181)
(0 0 599.49)
(0 0 647.386)
(0 0 1449.75)
(0 0 1400.53)
(0 0 701.033)
(0 0 1246.41)
(0 0 1167.49)
(0 0 637.686)
(0 0 409.654)
(0 0 559.924)
(0 0 1106.94)
(0 0 1970.09)
(0 0 1959.57)
(0 0 1394.62)
(0 0 874.192)
(0 0 1814.14)
(0 0 2132.72)
(0 0 2040.13)
(0 0 2712.79)
(0 0 3899.57)
(0 0 4431.94)
(0 0 4240.47)
(0 0 5583.13)
(0 0 6312.48)
(0 0 6739.76)
(0 0 6820.39)
(0 0 7010.4)
(0 0 8325.75)
(0 0 9724.7)
(0 0 9975.87)
(0 0 9846.51)
(0 0 9471.06)
(0 0 9248.09)
(0 0 8818.46)
(0 0 9907.26)
(0 0 9794.26)
(0 0 9469.13)
(0 0 9291.22)
(0 0 8942.65)
(0 0 8574.66)
(0 0 8381.71)
(0 0 8225.48)
(0 0 7965.69)
(0 0 7657.44)
(0 0 7349.69)
(0 0 7283.36)
(0 0 7215.56)
(0 0 6869.95)
(0 0 6387.58)
(0 0 5996.97)
(0 0 5569.55)
(0 0 5166.75)
(0 0 4944.23)
(0 0 4675.25)
(0 0 4477.58)
(0 0 5606.23)
(0 0 5692.44)
(0 0 5913.5)
(0 0 5289.81)
(0 0 4783.11)
(0 0 4373.84)
(0 0 3823.08)
(0 0 4437.37)
(0 0 5266.38)
(0 0 5074.53)
(0 0 4904.41)
(0 0 4281.46)
(0 0 3139.09)
(0 0 2234.85)
(0 0 2811.99)
(0 0 3527.54)
(0 0 4296.81)
(0 0 3673.14)
(0 0 3578.41)
(0 0 4105.92)
(0 0 3597.35)
(0 0 3019.9)
(0 0 3913.74)
(0 0 3497.19)
(0 0 2589.65)
(0 0 3377.31)
(0 0 3457.69)
(0 0 4277.68)
(0 0 3786.42)
(0 0 3516.03)
(0 0 4263.03)
(0 0 3679.61)
(0 0 4264.28)
(0 0 4128.23)
(0 0 3744.01)
(0 0 3067.9)
(0 0 2126.72)
(0 0 3017.26)
(0 0 2792.55)
(0 0 2087.83)
(0 0 1340.76)
(0 0 640.87)
(0 0 21.639)
(0 0 -1311.09)
(0 0 813.996)
(0 0 1007.89)
(0 0 1621.23)
(0 0 2065.1)
(0 0 1929.09)
(0 0 1774.31)
(0 0 1756.69)
(0 0 1586.09)
(0 0 1052.66)
(0 0 1672.75)
(0 0 1994.61)
(0 0 1909.5)
(0 0 1500.55)
(0 0 2218.66)
(0 0 1996.62)
(0 0 2025.88)
(0 0 2430.41)
(0 0 2905.11)
(0 0 2799.26)
(0 0 2752.89)
(0 0 3701.78)
(0 0 4898.99)
(0 0 5448.99)
(0 0 5682.44)
(0 0 6841.56)
(0 0 7790.73)
(0 0 8206.14)
(0 0 8129.94)
(0 0 8141.3)
(0 0 9244.38)
(0 0 10248.2)
(0 0 10155.9)
(0 0 10080.6)
(0 0 9980.75)
(0 0 9826.96)
(0 0 9668.06)
(0 0 9540)
(0 0 9450.67)
(0 0 9255.76)
(0 0 8918.55)
(0 0 8636.67)
(0 0 8472.23)
(0 0 8291.59)
(0 0 8005.69)
(0 0 7640.91)
(0 0 7323.65)
(0 0 7063.99)
(0 0 6763.74)
(0 0 6244.4)
(0 0 5595.86)
(0 0 4962.2)
(0 0 5843.21)
(0 0 5366.89)
(0 0 4900.23)
(0 0 4614.17)
(0 0 4532.63)
(0 0 3744.08)
(0 0 4064.42)