/*--------------------------------*- C++ -*----------------------------------*\
| =========                 |                                                 |
| \\      /  F ield         | foam-extend: Open Source CFD                    |
|  \\    /   O peration     | Version:     5.0                                |
|   \\  /    A nd           | Web:         http://www.foam-extend.org         |
|    \\/     M anipulation  |                                                 |
\*---------------------------------------------------------------------------*/
FoamFile
{
    version     2.0;
    format      ascii;
    class       volScalarField;
    location    "0.06";
    object      p;
}
// * * * * * * * * * * * * * * * * * * * * * * * * * * * * * * * * * * * * * //

dimensions      [1 -1 -2 0 0 0 0];

internalField   nonuniform List<scalar> 
4000
(
74238.5
77350.7
80025.3
82303.4
82956.3
83151
84017.1
85829.2
87971.1
89161.4
90078.9
93073
97025.6
99838
102950
106188
110305
116217
121482
127627
134535
139123
138411
136557
140296
145133
150757
160101
173273
186888
195999
208128
224720
239670
254248
270068
286130
299238
309821
318719
324029
326534
325895
322457
319373
315752
310315
301627
287982
272703
261273
252904
244954
238204
234054
230979
227683
224275
220181
214057
207139
201508
196430
192231
188727
184012
180343
177970
175359
174345
174828
174312
172808
171090
167400
160817
154368
149704
146225
143578
140082
135902
131769
126371
120371
115499
109487
103065
98228.2
93607.8
87314.2
80635.9
73910
65975.4
58144.4
50526.4
42785.4
32046.1
16929
5368.99
74081.3
77209.7
79879
82178
82908.1
83150.5
83965.4
85740.1
88021.7
89224.7
90015.8
93090.3
97105.9
99838.7
103007
106179
110087
116182
121325
127563
134523
139326
138643
136557
140652
145378
150658
160343
173717
187120
196086
208217
224830
239695
254179
269933
285937
299089
309682
318545
323826
326297
325565
322157
319213
315699
310160
301517
287907
272617
261363
253069
245083
238278
234241
231149
227754
224316
220103
213996
207096
201502
196515
192337
188832
183997
180349
178084
175444
174324
174793
174278
172689
170911
167303
160743
154307
149721
146248
143600
140127
135900
131708
126341
120287
115396
109430
102982
98255
93684.9
87307.5
80561
73859.8
65984.3
58172.3
50523.7
42861.8
32133.2
16804
5147.91
74042.6
77096.2
79697.7
82110.3
82968.9
83208.7
83835.9
85587.3
88128.2
89202.2
89905.9
93207.1
97102.6
99858
103095
106218
109949
115910
121342
127817
134479
139356
138805
136615
140995
145675
150397
160315
174375
187143
195884
208333
224886
239670
254217
269859
285736
298995
309576
318451
323686
326037
325193
321783
319023
315735
310204
301536
287770
272275
261164
252932
245030
238315
234401
231401
227837
224362
220066
213920
206960
201318
196498
192407
188810
184003
180368
178131
175478
174182
174839
174408
172680
170903
167287
160612
154203
149672
146312
143600
140105
135946
131636
126343
120276
115192
109357
102901
98187.4
93735.4
87398.3
80553.7
73859.2
66073.1
58166.1
50727.3
43114.6
32141.5
16631.3
4929.51
74329.1
77111.7
79615.5
81989.8
83011.5
83383.3
83751.4
85394.2
88090.8
89144.7
89921.2
93350.1
97072
99850.3
102936
106049
110119
116034
121208
127717
134705
139425
138879
137084
141553
145509
150036
160459
174971
186895
195506
208290
224920
239561
254109
270004
285723
298831
309427
318384
323395
325634
324718
321392
318974
315953
310435
301544
287378
271737
260720
252526
244768
238393
234587
231710
228094
224505
219796
213638
206888
201046
196419
192493
188650
183980
180418
178150
175477
173960
174804
174649
172831
170963
167231
160411
153991
149626
146435
143547
140049
135891
131582
126325
120303
115044
109277
102960
98148.2
93687.8
87450.9
80630.4
73930.1
66174.4
58184.7
50959.2
43576.2
32461.2
16041.4
4247.54
75007
77222.3
79530.1
81884.5
83027.2
83501.9
83711.9
85247.2
87972.2
89105.7
90002.3
93338.5
97133.9
99912.5
102552
105830
110596
116593
121012
127299
135202
139632
139119
137696
141475
145187
149804
160551
175205
186516
195311
208380
224582
239253
254054
270250
285843
298778
309420
318183
323010
325129
324050
321048
319063
316336
310738
301624
286758
271074
260496
251937
244447
238449
234547
232041
228500
224564
219598
213462
206643
200829
196509
192525
188397
183957
180472
178113
175499
173804
174760
174926
173164
171126
167235
160172
153684
149549
146551
143494
139905
135765
131680
126354
120118
114952
109320
102929
98179.3
93783.8
87364.8
80671.3
74012.3
66314.8
58360.9
51101.9
44012
32903.6
15438
3589.28
75882
77404.6
79523.2
81790.2
83011.6
83568.7
83725.5
85138.8
87782.4
89067
90030.1
93343.9
97230.8
99843.6
102529
105663
111029
117294
121021
127317
135625
139598
139552
138460
140707
144531
149875
160729
174901
185982
195265
208539
224284
239107
254230
270289
285959
298714
309270
318022
322687
324593
323380
320769
319295
316898
310879
301542
286174
270452
260178
251372
243940
238251
234661
232380
228914
224828
219638
213340
206414
200695
196601
192428
188099
183950
180578
178068
175518
173768
174754
175176
173611
171354
167219
159821
153221
149330
146749
143606
139584
135693
131960
126322
119935
114857
109415
102936
98171.4
93990.2
87316.7
80758.5
74089.3
66437.7
58557
51279.9
44433
33316.2
14852.4
3151.71
76809.4
77578.4
79643.1
81797.2
82961.4
83558.8
83762
85047.6
87571.9
89000.9
90016.6
93338
97418.2
99965.1
102483
105594
111346
117849
121492
127569
135613
139603
139645
138713
140241
144101
150048
160883
174161
185202
195123
208655
224167
238952
254267
270381
286139
298510
309166
317943
322419
324061
322638
320726
319873
317366
310867
301322
285454
269715
259853
250876
243050
237947
234957
232729
229584
225373
219684
213217
206189
200590
196596
192194
187900
184004
180595
178042
175549
173782
174884
175470
174030
171539
167005
159361
152757
149102
146735
143800
139498
135573
132248
126404
119749
114731
109491
103023
98207.2
94151.4
87414.6
80951.7
74150.3
66552
58682.9
51239.7
44861.6
33753.9
13991.2
2290.39
77726.5
77694.9
79800.6
81898.2
83008.6
83543
83751.7
85003.8
87383.3
88834.2
89971.7
93264.7
97528.6
100132
102579
105673
111510
118645
122291
127543
135189
139596
139514
138770
140033
143270
149979
160763
173255
184575
195012
208314
223973
238886
254302
270526
286226
298397
309145
317879
322155
323719
322194
320894
320495
317837
310833
300664
284690
269250
259526
250059
242088
237696
235230
233121
230373
226084
219711
212912
205893
200486
196512
191935
187762
183994
180569
177916
175528
173965
175076
175767
174429
171608
166656
158712
152418
149128
146532
143680
139596
135833
132607
126542
119693
114568
109385
102980
98335.5
94441.9
87667.4
80972.1
74170.8
66773.8
58471.4
51075.1
45184.2
33954.5
13209
1461.36
78634.4
77766.5
79945.1
82048.4
83147.4
83579.4
83653.8
84902.3
87186.6
88620.5
89917.9
93293.7
97512.4
100312
102746
105862
111735
119093
122811
127926
134896
138814
139180
138411
139429
142910
150082
160100
172235
183966
194724
207968
223504
238740
254497
270750
286378
298361
309092
317764
322126
323621
322125
321525
321235
318243
310527
299673
284085
269219
258911
248950
241241
237253
235279
233804
231210
226655
219814
212521
205477
200424
196412
191656
187542
184056
180511
177688
175478
174287
175302
176042
174768
171635
166163
158061
152033
149299
146590
143286
139743
136262
132849
126891
119596
114393
109265
102907
98767.2
94571.1
87682.8
81101.5
74260.7
66639.4
57916.1
51039.3
45435.7
33664.3
12303
602.375
79569.2
77761.2
80063.8
82247.5
83327.9
83678
83532.1
84682.6
86965.7
88362.1
89721.3
93500.6
97670.6
100328
102988
106453
111883
119143
123150
128126
134548
137562
138467
137828
138687
142471
149876
159686
171371
182925
194125
207802
223246
238678
254676
270998
286619
298461
309008
317696
322349
323822
322543
322451
322014
318773
310250
298527
283439
269419
258208
247507
240392
236651
235511
234675
232035
227306
219966
212034
204923
200553
196398
191113
187269
184263
180533
177363
175395
174708
175578
176203
175230
171669
165606
157392
151884
149449
146739
143155
139827
136771
133070
127209
119795
114361
109007
102720
99273.4
94851.1
87821.7
81080.1
74055.4
66146
57420.2
50913.1
45480
32963.8
11344.3
-32.7328
80469.7
77719.7
80152.8
82457.6
83556.4
83791.4
83430.7
84445.9
86673.3
88092.7
89606.3
93628.3
98032.1
100494
102984
107190
112291
118762
123089
128030
134438
136343
137154
137022
137845
141946
149569
159354
170750
182006
193737
207791
223163
238849
254871
271262
286963
298457
309098
317820
322576
324851
323540
323117
322904
319313
310092
297894
282723
269448
257585
246193
239465
236058
235966
235695
233059
228043
220117
211541
204522
200665
196187
190611
186996
184413
180727
177060
175215
175019
175979
176324
175558
171741
165170
156842
151824
149723
146909
143093
140087
137362
133228
127422
120121
114323
108930
102664
99603.1
95171.9
88121.4
80773.3
73579.5
65704.2
56983.4
50415.1
44990.1
32373.9
10749.7
-565.276
81353.5
77646.1
80206.7
82698.1
83807.5
83922.3
83388.8
84219
86374.3
87780
89602.8
93889.8
98333.3
100822
103039
107575
112790
118464
122739
127513
133527
135230
135768
135989
137286
141509
149308
159099
169991
181371
193640
207846
223269
239248
255423
271671
287352
298723
309086
318125
323238
326076
325113
324193
323485
319399
310332
297538
282277
269576
257002
244969
238345
235809
236542
236847
234504
228523
220103
211247
204322
200809
195902
190008
186794
184655
180879
176678
175097
175231
176274
176578
175539
171418
164718
156522
152065
150160
147228
143068
140446
137905
133305
127838
120560
114403
108809
102677
100088
95572.9
88155.5
80403.9
72975.5
65123.4
56236.8
49629.6
44569
32021.9
10216.1
-1037.39
82196.9
77566.2
80250
82903.5
84024.5
84026.3
83310.7
84005
86078
87534.2
89610.7
94220.8
98569
100988
103239
107870
113253
118122
122227
127091
132285
133893
134446
135014
136635
141150
148877
158566
169097
180518
193606
208336
223870
239644
256349
272659
287784
298713
309515
318782
324339
327675
326555
325582
324519
319827
310487
297431
282126
269396
256776
243859
237213
235779
237226
238002
235804
228929
219774
211228
204288
201069
195678
188872
186725
185311
180682
176156
175074
175407
176354
176411
175210
171078
164146
156638
152269
150637
147742
143135
140994
138235
133384
128399
120814
114458
108891
103142
100626
95680.9
88041.5
80176.6
72272.2
64484.7
55377.5
48686.6
44135
31369.1
9689.59
-1222.8
82931.4
77529.1
80270.9
83044.9
84205.2
84088.6
83221.8
83829.2
85824.6
87454.2
89762.5
94421.1
98805.7
101189
103424
108098
113252
117537
121506
126179
130895
132772
133359
134163
135899
140679
148289
157930
168547
179806
193796
209165
224994
240531
257126
273496
288918
299439
309941
319782
325568
329215
328451
327296
325744
320505
311011
297684
282149
269329
256620
243087
236135
235751
238193
239147
236589
229305
219493
210979
204411
201597
195231
187301
186893
186247
180117
175629
175313
175590
175822
175717
174723
170860
164101
156731
152379
151160
148474
143206
141023
138816
133600
128595
121125
114800
109347
104013
101270
95658.2
87825
79740.2
71780
63637.9
54435.8
47640.1
43155.1
30645.8
9497.96
-990.06
83558.6
77560.7
80267
83130.8
84352.5
84096.1
83049.4
83675.1
85625.5
87523
90066.9
94587.8
99010.1
101380
103588
108253
113085
116675
120398
124853
129299
131603
132336
133507
135153
139891
147757
157463
168163
179662
194253
210378
225915
241413
258323
274098
290249
300770
310679
321088
327006
331370
330444
329178
327204
321403
311864
298045
282347
269584
256730
242527
235214
235625
239093
240182
237316
229526
219266
210509
204645
202076
194923
186316
186725
187024
179863
175075
174937
175812
175321
174037
173977
170633
163948
156845
152776
152266
149211
143158
140893
139355
133972
128659
121544
115671
110401
104524
101710
95570.8
87044
78975.1
71143.5
63051.4
53601.5
46613.3
41980.6
29367.7
9294.66
-248.135
84070
77615.8
80197.9
83161.6
84472.7
84076.2
82952.4
83660.6
85598.8
87718.1
90339.5
94746.7
99162.1
101552
103769
108184
112853
115856
119152
123217
127642
130283
131041
132721
134635
138964
146913
156671
167602
180100
194926
211798
226894
241706
260254
275169
291278
302766
312220
322328
328801
333749
332572
331134
328850
322526
313171
299078
282807
269957
256939
242146
234268
235375
239527
241227
238332
229665
218956
210290
204999
202271
194442
185662
186577
187560
180055
174487
173894
175482
174860
172659
172623
169823
163803
157415
153422
152952
149823
143429
141032
139535
134756
129389
122163
116529
111095
105105
101785
94892
85893.2
77945.9
70441.7
62446.4
52917.5
45807.7
40553.2
27579.9
9149.3
788.404
84481.8
77692.4
80097.2
83148.6
84509.2
84053.9
83015.5
83930.4
85630.9
87847.6
90642.2
94834.1
99223.6
101615
103769
108028
112384
114933
117926
121411
125846
128790
129239
131497
134211
137811
145840
156101
167625
180871
195823
213632
228096
242426
261780
276624
292593
305212
313937
323877
330881
335839
335120
333429
330204
324056
315290
300317
283636
270514
256978
242068
233690
234807
239585
242145
239004
230035
219002
209892
205359
202505
193961
185325
186507
187609
180628
173926
171984
174406
174276
172062
170995
168934
163772
158078
153958
153101
150910
143871
140889
139698
135737
130951
123377
117165
111575
105524
101428
94146.2
84689.1
76350.2
69463.5
61821.6
52266.2
44878.4
39169
25939.4
9037.01
1571.65
84778.5
77747.1
79990.6
83151.1
84581.5
84057.6
83242.4
84163.1
85606.7
87925.1
90887.9
94880.2
99201
101605
103635
107814
111886
113988
116415
119433
123824
126864
126886
129676
133598
137365
144569
155550
168467
181595
197003
215923
229519
243835
262830
278295
294428
307771
315696
324977
333753
338571
337837
335789
331646
325930
317189
301736
284918
271333
256927
242047
233256
233825
239597
242676
239106
230155
219143
209767
205460
202553
194013
185797
186142
187312
180987
173387
170107
172295
173383
171504
169907
167955
163753
158753
154539
153358
151561
144437
140983
139905
136947
132605
124984
117970
112004
105661
100976
93318
83528.8
74872
68211.3
61193.4
51915.5
44078.5
37451.1
24606.5
9355.75
1846.62
84931
77809.7
79836.6
83181
84640.1
84131.1
83575.9
84269.3
85454
88092.7
91042.6
94881.6
99199.2
101594
103464
107419
111281
113174
114806
117157
121293
124600
124381
127220
132767
137526
144433
154417
168151
182666
199151
218129
231206
245061
263217
280741
297259
309680
317401
327541
337397
341744
340801
337715
333966
328189
318552
303749
286434
271611
256981
241700
232501
232876
238992
242028
238414
229851
219375
209686
205541
202778
194481
186501
186034
187153
180848
172582
168668
170468
171778
169849
168617
167561
164013
159439
155560
153498
151729
145297
141121
139740
138129
134508
127237
118908
112207
106051
100822
92568.9
82518.7
73848.2
67185.6
60697
51640.1
43364.6
35941
23493.5
9884.82
2114.75
84907.3
77900.2
79727.3
83281.3
84794.6
84260.4
83942.8
84264.2
85352.8
88287.1
91228.4
94789.2
99108.3
101682
103189
106759
110305
111906
113324
114964
118236
121428
121952
124748
131175
137233
144794
154546
167481
183203
201241
219647
232569
246784
264180
282869
299964
311734
320221
331065
340761
344866
344057
341099
337430
330963
320215
305436
288551
272128
256161
240723
231243
230944
237997
241207
237271
229375
218792
209502
206323
203044
194705
187464
186745
187299
181037
171102
166384
168576
170667
168927
167012
166599
164481
160072
156433
153751
151761
146661
141341
139792
139390
136763
129939
119656
112664
106693
100869
92322.7
81560.4
72907.6
66258.1
60108.4
51651.1
42932.1
34618.3
23067
10817.4
2821.39
84744.8
77984.4
79806.5
83537.5
85024.6
84641.7
84315.7
84082.3
85391.7
88432.4
91317.1
94783.5
99000.4
101686
102894
105917
109023
109878
111377
113106
115548
117919
119597
122939
129136
135907
144601
154870
167565
182904
202084
220675
233857
248309
265957
285270
301932
313837
323242
334296
344032
348254
347688
345051
341193
334279
323103
307564
290219
273243
255389
238740
229216
228737
236885
240802
236462
228577
218064
209621
207405
203181
195058
189197
188206
187243
180702
169712
163549
166106
169379
168756
165984
165368
164516
160792
157047
153945
152080
147719
141630
139955
140508
139261
132391
121018
113508
107599
101242
91735.2
80531.6
72143.6
65800.2
59778.9
51598.8
42724.3
33984.8
23516
12520.7
3986.84
84526.2
78208.2
80031.6
83743.6
85484.7
85191
84576.4
83899.6
85437.9
88654.5
91350.5
94570
98885.4
101791
102673
104807
106842
107553
108984
110685
113095
115428
116866
120784
127813
133913
143232
154450
166792
183062
202621
220623
234808
249877
267737
287101
303884
316098
326169
337297
347024
351463
351214
348735
344760
337668
326336
310685
292845
274419
254918
237003
226634
226050
235794
241024
236082
228196
217885
209824
207977
203687
195857
190757
189320
188016
180797
168533
160827
163440
167911
168202
165208
164258
164389
161247
157375
154348
152276
147853
141570
140133
141570
141178
134034
122616
114528
108649
101949
91163.7
79931.4
71821.4
65759.2
59666.3
51437.8
42811.5
34021.8
24578.1
14584.5
5400.5
84310.2
78446.3
80347.4
83954.3
85971.6
85755.9
84860.2
84007.9
85435.6
88731.6
91306.3
94384.2
98849.7
101624
102230
103509
104369
104480
105664
107672
110079
112579
114475
118267
125213
132112
141680
152948
165626
182491
202081
220423
235651
251325
269320
288629
305608
318225
328828
339972
349639
354328
354446
352202
348258
341112
329673
314060
295985
276502
254689
234890
224072
223956
234949
241739
235904
227445
217390
210175
208757
204284
196333
191855
190537
189144
181053
167340
158550
161159
166500
167299
164363
163294
164336
161734
157672
154719
152272
147520
141355
140334
142688
142316
135247
124090
115523
109878
102683
90716.9
79346.2
71907.4
65981.6
59585.8
51506.1
43233.8
34375.9
25611.3
16455
7003.36
84100.5
78611.5
80753.2
84253.6
86186.7
86174.3
85382.9
84182.3
85321.4
88831
91207.6
94529.4
98973.2
101319
101540
101376
101043
100688
101859
104314
106814
109350
111406
115265
122182
129909
140008
151379
164584
181650
201227
219996
236194
252492
270579
289766
306933
320015
331052
342142
351687
356705
357260
355375
351620
344537
333083
317599
299351
278994
254953
232276
221192
222307
234179
241973
235946
226772
216428
210545
209847
204619
196343
192861
191745
190193
181799
166041
156132
158735
165246
166590
163602
162175
164031
162360
158193
155056
151999
147164
141236
140812
143810
143005
136178
125344
116742
110999
103296
90727.4
79019.1
72052.4
66212.3
59559.8
51734.9
43649.5
34834
26488.5
18527.8
9056.57
83800.1
78711.3
81009
84539.7
86294
86486.7
85868.4
84520.3
85097.3
88483.8
91399.2
94872.5
98827.7
100922
100680
98995.5
97290.1
96515.4
97944.5
100756
103197
105791
108121
112368
119617
128070
138658
150222
163712
180730
200114
219153
236245
253136
271380
290481
307862
321450
332833
343808
353171
358486
359543
358086
354647
347744
336393
321159
302874
281766
255479
229515
218185
221267
233602
241521
236024
226181
215813
211009
210765
204868
196529
194062
193157
191706
182527
164560
153574
156043
164167
166229
162882
161076
163639
162993
158791
155143
151583
146660
141289
141354
144488
143376
137046
126608
118061
112164
104134
91091.1
78730.7
71952
66305.7
59688
52076.3
44148.4
35426.7
27683.4
21034.9
11414.7
83311.2
78873.3
81152.1
84659.3
86306.9
86706.3
86173.6
84972.3
85194.6
87814.6
91396.9
95079.6
98369.5
100518
99898.4
96697.7
93456.9
92315.6
94073.2
96930.5
99361.5
102222
105117
109998
117611
126692
137577
149404
163007
179820
198947
218164
235943
253376
271801
290912
308502
322529
334141
344918
354027
359498
361030
360067
357057
350575
339412
324451
306246
284698
256141
227441
215593
220260
233228
240930
236419
225919
215433
211684
211441
204902
196529
194696
194630
193619
183601
163132
150786
153306
163280
166181
162422
160254
163182
163702
159502
155035
150978
146094
141447
141786
144700
143584
137632
127631
119323
113013
105190
91809.5
78429.6
71604.2
66241.4
59976.5
52491.2
44634.1
36188.9
29355
24227.3
14211.5
82752.9
79047.1
81192.6
84585.1
86427.4
86887.5
86232
85256.8
85469.1
87510.2
91113.5
94983.2
97869.7
99900.4
99245.9
94490.1
89602.9
88312.3
90494.9
93052.3
95646.9
98963.6
102489
108028
116028
125622
136723
148749
162370
178913
197787
217020
235126
253014
271718
290988
308835
323232
335018
345647
354557
360061
361839
361141
358433
352501
341907
327272
309227
287689
257364
225841
213372
219372
232583
240692
237297
226016
215461
212296
211871
204855
196149
194562
195359
195335
184713
162402
148660
150916
162354
166074
162310
160004
162711
164237
160302
154902
150362
145495
141539
142159
144738
143623
137806
128404
120245
113518
106232
92737.3
78454
71171.1
66002.6
60254.8
52921.3
45074.8
37289.9
31417.1
28069.7
16955.9
82047
79202.8
81225.1
84427.8
86477
87044.5
86374.7
85424.4
85602.2
87420.9
90690.9
94517.8
97583.2
99576.3
98415.6
92303.3
85731.6
84631.5
87364.2
89529.6
92236.6
96081.8
100173
106251
114607
124572
135867
148078
161750
178101
196729
215862
234105
252203
271115
290557
308672
323469
335513
346108
354838
360239
362098
361506
359301
353747
343627
329023
311692
290578
259032
225229
211294
218098
231685
240616
238133
226757
216173
212968
212004
204871
195741
193896
195389
196132
185470
162347
147412
148952
161238
165885
162370
160186
162542
164741
160867
154683
149637
144782
141573
142577
144767
143553
137706
128877
120784
113993
107338
94003
78796.5
70715.6
65543.9
60395
53557.6
45861.9
38556.1
33724.4
32601.7
19431.7
81210.5
79328.5
81233.3
84208
86457.1
87158.5
86591.6
85641.9
85672.4
87321
90311.1
94037.1
97379.9
99323.7
97439.8
90287.8
82254.9
81588.1
84743.8
86499.7
89019.5
93350.7
97932.7
104631
113374
123608
135045
147460
161184
177392
195867
214820
233039
251230
270238
289716
307952
323124
335503
346168
354780
360141
362146
361731
359637
354435
344845
330509
313610
292712
260944
225014
209334
216463
230336
240514
238931
228101
217410
213539
212102
204991
195511
193024
195087
196470
186420
162606
146371
147249
160131
165481
162300
160461
162912
165347
161245
154484
148928
143969
141373
143079
144923
143457
137517
129195
121106
114300
108349
95535
79629.1
70463.5
65153.1
60516.1
54058.9
46577.8
40047.5
36360.2
37735.3
22254.8
80272.4
79393.8
81147.9
83965.7
86385.8
87224.9
86755.7
85854.5
85767.7
87138.1
89834.5
93537.8
97262.7
99136
96820.6
88750.7
79603
79075.1
82638.7
83637
85963.7
90808.3
95809.5
103061
112243
122817
134363
146836
160588
176751
195074
213851
232068
250314
269315
288700
306912
322347
335080
345883
354446
359842
362038
361874
359818
354839
345673
331777
315152
294854
263260
225717
208304
214338
228381
240146
239520
229487
218878
214186
212181
205338
195435
192135
194636
197040
187833
164020
146265
145696
158836
164644
161952
160797
163577
165978
161711
154219
148049
143149
141243
143619
145036
143144
137428
129766
121683
114606
109274
97082.4
80717.2
70660.8
65049.3
60540.5
54365.8
47026.7
41737.3
39563
43047.8
25594.1
79299.6
79370.5
80986.5
83623.3
86243.1
87263.6
86924.5
86135.6
85961.6
87010.3
89389.4
92913.7
96981.9
99075.7
96527.2
87709
77965.1
77191.6
80258.8
80955.1
83524
88367.1
93944.6
101736
111250
122005
133610
146138
159939
176073
194258
212908
231149
249464
268443
287686
305791
321365
334348
345271
353828
359282
361691
361797
360018
355295
346655
333282
316640
296910
267326
228347
208006
212169
226753
239939
239801
230586
220437
215091
212447
205884
195297
191118
194515
198344
189244
166085
147456
144672
157325
162973
161344
161663
164160
166522
162474
153934
146933
142426
141508
144077
145348
142929
137265
130266
122197
115250
110221
98582.3
81923.3
71013.3
65312.4
60643.4
54690.5
47734.6
43260.4
42952
47885.7
28498.4
78272.6
79258.1
80750.5
83208
85988.6
87240.7
87070.3
86404.8
86204.5
86952.4
88901.6
92116.8
96427
98887.5
96415.4
87136.6
77105.7
75799.3
77884.6
78563
81536.2
86452
92501
100527
110156
121013
132671
145260
159192
175355
193419
211986
230282
248676
267621
286711
304676
320308
333458
344460
353037
358603
361238
361621
360009
355500
347284
334958
319098
300025
273275
232393
208347
211723
226508
239860
239475
231119
222503
217399
213671
205810
194783
190449
195035
200012
190459
168517
149793
143929
155174
161146
160985
163200
164666
166791
163379
153664
145829
142305
142298
144526
145978
142836
136882
130214
122536
116147
111239
99467.3
82852.5
71834.7
65591.7
61002.4
55415.8
48459.8
44384
46144.1
52074.9
30656.3
77240.6
79067.1
80439
82715.1
85616.6
87165.7
87185.3
86640.4
86483.8
86996.6
88473.5
91245.6
95724.2
98520.7
96433.1
86868.4
76861.8
74778.5
76010.4
77024.1
80159.9
85067.9
91137.2
99188.7
108836
119762
131546
144269
158356
174556
192528
211045
229420
247911
266838
285780
303594
319239
332510
343584
352203
357918
360799
361394
359857
355500
347698
336331
321474
302759
278258
236695
210259
213142
227594
239862
237828
230295
225312
220646
214393
206135
194792
189883
195332
201115
191094
170851
152791
143198
152429
159953
161438
164363
164882
166627
163905
153638
145020
142280
142859
144918
146509
142962
136648
129899
122344
116773
112460
99734.2
83944.1
72511.9
65492.2
61608.1
56237.3
49108.3
45402.4
48968.4
55710.6
32296.7
76307.2
78834
80117.2
82144.6
85150.7
87056.5
87299.6
86905.4
86815.8
87121.9
88051.2
90310.2
94833
98162
96341.6
87057.4
77293.5
74537.6
75211.2
76208.5
79197.7
83838.6
89784.3
97764.9
107407
118363
130274
143178
157458
173704
191591
210077
228549
247149
266075
284880
302552
318189
331551
342707
351399
357266
360352
361060
359502
355137
347587
336833
322639
303966
280551
239682
212689
215183
228633
238954
236406
230442
227710
222743
214391
206141
194566
189275
195882
202328
190765
172448
155468
142738
150106
159442
162469
164734
164589
166632
164085
152511
144521
142805
144166
145909
146190
142964
136936
130273
122500
116913
113306
99491.9
84617.2
72947.1
65325.6
62394.6
56935.6
49550.7
46444.4
51442
58987.1
33602.7
75552.7
78566.3
79760.9
81653.7
84788.5
86932.7
87383.3
87153.2
87090.9
87196.5
87603.7
89427.6
93983.4
97720.5
96291.5
87232.4
78054.1
74934.8
74854.9
75792.9
78493.4
82807.1
88572
96370.4
105950
116940
128989
142092
156569
172860
190663
209119
227694
246419
265356
284042
301587
317208
330652
341895
350679
356691
359936
360687
358985
354430
346893
336378
322434
303517
280390
241457
215002
217035
229071
238646
235597
229979
229179
224310
213414
204842
195429
189728
196396
202710
189765
173208
157602
142879
148742
158876
162906
165383
164472
166210
164496
151658
143642
143628
145576
146551
146521
143807
136543
130439
123775
117499
113486
99118.1
85212.5
73104.9
64754.8
62694.2
57011.3
50230
47585
53511.1
62033.7
34728
74913.6
78283.1
79509.5
81358.8
84617.1
86841
87301.3
87337.6
87353.9
87276.1
87200.4
88819.3
93555.1
97029.8
95980
87394.4
78801.3
75515.1
74906.5
75673.7
78026.5
82010
87602.1
95228.5
104712
115702
127864
141160
155829
172165
189889
208316
226987
245843
264806
283399
300833
316433
329951
341291
350183
356341
359728
360481
358575
353753
346047
335588
321583
301887
278763
243218
217526
218818
229709
238392
234485
228949
228864
225227
213267
203511
196479
190767
196617
202480
188860
173558
159203
143388
147673
158205
162793
165273
164175
165463
164454
151732
143097
143998
146032
146879
147588
143854
135457
130357
125147
119028
113789
98463.7
85339
72969.3
64348.5
62786.4
56453.8
50726.1
48793.4
55113.8
64818.9
35763.8
74445.1
78045.5
79429.5
81282
84633
86683.6
87174.5
87588
87643.9
87344.7
86849.7
88497.9
93301
96143.8
95362
87483.9
79336
76102.8
75195.5
75705.5
77806.4
81593.1
87056.1
94539.5
103912
114876
127121
140585
155427
171812
189475
207878
226632
245600
264597
283123
300472
316056
329623
341047
350046
356339
359840
360567
358476
353384
345400
334956
320860
299862
276409
245275
220162
219855
230526
238621
233499
227906
228420
225106
213443
203301
196316
191494
197312
201917
188639
173789
159710
143839
146769
156850
162655
165288
163865
164948
163157
151371
143665
144917
146257
146682
147935
143095
134693
130667
125899
119482
113468
98025.9
84934.1
72653.1
64156.3
62166.9
55883.1
51050.1
49580.5
56667.3
67732.4
36790.3
74255.1
77977.7
79511.1
81394.2
84618.7
86575.7
87081.7
87848.3
87993.3
87224.7
86726.6
88642.6
93352.9
95649
94785.6
87356
79546.4
76553.4
75516.8
75928.4
77886.6
81553.1
86942.5
94333.3
103629
114573
126870
140456
155433
171869
189504
207901
226722
245771
264800
283287
300580
316146
329730
341183
350242
356620
360179
360869
358633
353316
345025
334464
320426
297756
273477
246992
223129
220188
230415
238500
233531
227584
227776
224439
213818
203578
196460
192224
197335
201260
188738
174164
159917
144212
146177
155733
161998
165540
163945
163720
161967
151792
144557
145749
146348
146254
147784
142505
134511
130894
126131
119069
112280
97266.2
84163.7
72167.1
63747.2
61489.1
55852.8
51190.4
50252.3
57953.1
69711
37548.2
74354.8
78044.2
79591.8
81595.5
84635.4
86469.4
87136.5
88094.6
88270.2
87182.7
86865.3
89109.2
93682.5
95761.4
94811.6
87547.3
79820.8
76957.1
75855.7
76207.4
78076.9
81675.8
87044.1
94393.8
103669
114601
126916
140558
155611
172100
189753
208176
227056
246171
265234
283717
300988
316529
330083
341521
350603
357004
360559
361214
358895
353424
344810
333986
319821
296568
271922
247370
224353
220575
230227
237881
233930
227697
227423
224101
213870
203055
196343
193273
197489
200423
188639
174208
159955
144950
146166
155140
161542
165498
164132
163475
161420
151654
144646
145675
146375
146362
147411
142099
134524
131074
125970
118644
111536
96634.8
83508.3
71773.3
63290.8
60982.1
55912.4
51329
50736.4
58377.9
70074.1
37516.4
74543.3
78125.9
79753.3
81754.9
84745.3
86552.5
87220.7
88212.5
88420
87294.2
87072.8
89652.8
94154.8
96288.9
95391.7
87973
80198.8
77227.6
76053
76329.3
78110.4
81669.5
87039.2
94374.2
103666
114572
126895
140551
155644
172187
189882
208352
227288
246459
265558
284067
301342
316873
330443
341898
350994
357437
360962
361598
359265
353682
344909
333815
319454
296424
271144
246470
224165
220244
230068
237826
234092
227833
227325
223857
213875
203013
196223
193539
197697
200200
188571
173993
159580
145271
146337
155029
161454
165275
164276
163561
161004
151617
144700
145480
146348
146429
147205
142018
134761
131186
125906
118506
111165
96330.3
83086.3
71451.7
63012.4
60541.8
55868
51414.6
50843.6
58360.5
69145.5
36358
)
;

boundaryField
{
    inlet
    {
        type            calculated;
        value           nonuniform List<scalar> 
40
(
74238.5
74081.3
74042.6
74329.1
75007
75882
76809.4
77726.5
78634.4
79569.2
80469.7
81353.5
82196.9