/*--------------------------------*- C++ -*----------------------------------*\
| =========                 |                                                 |
| \\      /  F ield         | foam-extend: Open Source CFD                    |
|  \\    /   O peration     | Version:     5.0                                |
|   \\  /    A nd           | Web:         http://www.foam-extend.org         |
|    \\/     M anipulation  |                                                 |
\*---------------------------------------------------------------------------*/
FoamFile
{
    version     2.0;
    format      ascii;
    class       volScalarField;
    location    "0.06";
    object      pd;
}
// * * * * * * * * * * * * * * * * * * * * * * * * * * * * * * * * * * * * * //

dimensions      [1 -1 -2 0 0 0 0];

internalField   nonuniform List<scalar> 
4000
(
74238.9
77351.2
80025.8
82303.9
82956.8
83151.5
84017.6
85829.7
87971.6
89161.9
90079.3
93073.5
97026.1
99838.5
102950
106188
110306
116217
121482
127627
134536
139124
138412
136558
140297
145134
150758
160102
173274
186889
196000
208129
224720
239671
254249
270069
286130
299238
309821
318720
324029
326535
325895
322458
319374
315753
310316
301627
287983
272704
261273
252905
244955
238205
234054
230979
227683
224275
220182
214058
207140
201508
196431
192231
188727
184013
180343
177971
175360
174346
174828
174313
172808
171090
167400
160817
154368
149705
146226
143578
140083
135903
131769
126371
120372
115499
109487
103066
98228.7
93608.3
87314.6
80636.4
73910.4
65975.9
58144.9
50526.9
42785.9
32046.6
16929.5
5369.48
74081.8
77210.2
79879.5
82178.5
82908.6
83151
83965.9
85740.6
88022.2
89225.1
90016.3
93090.8
97106.4
99839.2
103008
106179
110088
116182
121325
127564
134524
139327
138643
136558
140652
145379
150659
160344
173717
187121
196086
208217
224830
239695
254180
269934
285938
299090
309682
318545
323827
326298
325565
322157
319213
315700
310160
301518
287908
272617
261363
253069
245083
238278
234241
231150
227754
224317
220103
213997
207096
201503
196515
192337
188832
183998
180350
178085
175445
174325
174793
174279
172690
170912
167304
160744
154308
149721
146249
143600
140128
135900
131709
126341
120287
115397
109430
102982
98255.5
93685.4
87308
80561.5
73860.3
65984.8
58172.8
50524.2
42862.3
32133.7
16804.4
5148.4
74043
77096.7
79698.1
82110.8
82969.4
83209.2
83836.3
85587.8
88128.7
89202.7
89906.4
93207.6
97103.1
99858.5
103095
106219
109949
115910
121342
127818
134479
139356
138806
136616
140995
145676
150398
160316
174375
187143
195884
208333
224887
239671
254218
269859
285737
298996
309576
318451
323686
326038
325193
321784
319023
315736
310205
301537
287770
272276
261165
252932
245030
238315
234402
231402
227837
224362
220067
213921
206960
201319
196498
192407
188810
184003
180369
178132
175478
174182
174839
174408
172681
170903
167288
160613
154204
149672
146312
143601
140105
135946
131637
126343
120277
115192
109357
102901
98187.9
93735.9
87398.8
80554.2
73859.7
66073.6
58166.6
50727.8
43115.1
32142
16631.8
4930
74329.6
77112.2
79616
81990.3
83011.9
83383.8
83751.9
85394.7
88091.3
89145.2
89921.7
93350.6
97072.4
99850.8
102936
106049
110119
116034
121209
127718
134705
139426
138879
137084
141554
145510
150036
160459
174971
186896
195507
208290
224920
239561
254109
270005
285723
298832
309427
318385
323396
325635
324718
321392
318974
315953
310436
301544
287379
271738
260720
252526
244768
238394
234587
231711
228094
224506
219797
213639
206889
201046
196420
192493
188650
183980
180418
178150
175478
173961
174804
174649
172831
170964
167232
160411
153991
149627
146435
143548
140049
135892
131582
126325
120304
115045
109278
102960
98148.7
93688.3
87451.4
80630.8
73930.6
66174.9
58185.2
50959.6
43576.7
32461.7
16041.9
4248.03
75007.5
77222.8
79530.6
81885
83027.6
83502.4
83712.3
85247.7
87972.7
89106.2
90002.8
93339
97134.4
99913
102553
105831
110597
116593
121012
127299
135202
139632
139120
137696
141476
145187
149804
160552
175206
186517
195311
208381
224582
239254
254054
270250
285843
298779
309420
318184
323011
325130
324050
321049
319063
316336
310739
301624
286759
271074
260497
251937
244448
238450
234548
232041
228501
224564
219598
213462
206643
200829
196510
192526
188398
183958
180472
178114
175499
173804
174760
174927
173165
171127
167236
160172
153685
149550
146552
143494
139905
135766
131680
126354
120118
114952
109320
102929
98179.8
93784.3
87365.3
80671.8
74012.8
66315.3
58361.4
51102.4
44012.5
32904.1
15438.5
3589.77
75882.5
77405.1
79523.7
81790.7
83012.1
83569.2
83726
85139.3
87782.9
89067.5
90030.6
93344.4
97231.2
99844.1
102529
105663
111029
117295
121022
127317
135626
139599
139553
138460
140707
144532
149876
160730
174902
185983
195266
208539
224285
239108
254230
270289
285960
298714
309270
318022
322688
324593
323380
320770
319296
316898
310879
301542
286174
270452
260178
251372
243941
238252
234662
232380
228914
224829
219638
213341
206414
200696
196602
192429
188100
183951
180579
178069
175519
173768
174754
175177
173611
171354
167220
159821
153222
149330
146750
143607
139585
135694
131960
126323
119935
114857
109416
102937
98171.9
93990.7
87317.2
80759
74089.7
66438.2
58557.5
51280.4
44433.5
33316.6
14852.8
3152.2
76809.9
77578.9
79643.6
81797.7
82961.9
83559.2
83762.5
85048.1
87572.4
89001.4
90017.1
93338.5
97418.7
99965.6
102484
105595
111346
117850
121493
127570
135613
139604
139646
138713
140241
144101
150049
160884
174162
185202
195123
208656
224167
238952
254267
270382
286140
298511
309167
317944
322420
324061
322639
320726
319874
317367
310867
301322
285455
269715
259854
250876
243050
237948
234957
232730
229584
225373
219685
213217
206189
200591
196597
192194
187900
184005
180595
178042
175550
173782
174885
175471
174031
171540
167005
159361
152757
149102
146736
143800
139499
135573
132249
126404
119749
114732
109491
103023
98207.7
94151.9
87415.1
80952.2
74150.8
66552.5
58683.4
51240.2
44862.1
33754.4
13991.7
2290.88
77727
77695.3
79801.1
81898.7
83009.1
83543.5
83752.2
85004.3
87383.8
88834.7
89972.2
93265.2
97529.1
100133
102579
105674
111510
118645
122292
127544
135189
139596
139515
138770
140033
143271
149979
160763
173256
184576
195012
208314
223974
238887
254303
270526
286227
298397
309146
317879
322156
323719
322194
320895
320496
317837
310834
300664
284690
269251
259527
250060
242089
237696
235230
233121
230374
226084
219711
212913
205893
200486
196513
191936
187762
183994
180569
177916
175529
173966
175076
175767
174429
171608
166657
158713
152419
149128
146533
143681
139596
135834
132608
126543
119693
114569
109386
102981
98336
94442.4
87667.9
80972.6
74171.3
66774.3
58471.9
51075.6
45184.7
33955
13209.5
1461.85
78634.9
77767
79945.6
82048.9
83147.8
83579.9
83654.3
84902.8
87187.1
88621
89918.4
93294.2
97512.9
100312
102747
105863
111736
119094
122811
127926
134896
138815
139181
138412
139430
142910
150083
160101
172235
183966
194725
207969
223505
238740
254497
270750
286378
298361
309092
317764
322126
323622
322126
321525
321236
318243
310527
299673
284086
269220
258912
248951
241241
237253
235280
233804
231210
226656
219815
212521
205478
200424
196413
191657
187543
184057
180512
177689
175479
174287
175302
176042
174768
171635
166163
158062
152034
149299
146591
143287
139743
136263
132850
126892
119597
114394
109265
102907
98767.7
94571.6
87683.3
81102
74261.2
66639.9
57916.5
51039.8
45436.2
33664.8
12303.5
602.865
79569.7
77761.7
80064.3
82248
83328.4
83678.5
83532.6
84683.1
86966.2
88362.6
89721.8
93501.1
97671.1
100328
102989
106454
111884
119144
123150
128126
134549
137563
138467
137828
138688
142471
149877
159687
171371
182925
194125
207803
223246
238679
254677
270998
286620
298461
309009
317696
322350
323823
322543
322451
322015
318774
310250
298528
283439
269420
258209
247508
240393
236651
235511
234675
232036
227306
219967
212034
204923
200554
196398
191114
187270
184263
180533
177364
175396
174708
175578
176204
175231
171670
165606
157392
151884
149450
146739
143156
139827
136772
133071
127209
119795
114362
109008
102720
99273.9
94851.6
87822.1
81080.6
74055.9
66146.5
57420.7
50913.6
45480.5
32964.3
11344.8
-32.2423
80470.2
77720.2
80153.3
82458.1
83556.8
83791.9
83431.2
84446.4
86673.8
88093.2
89606.8
93628.8
98032.6
100494
102984
107190
112291
118762
123089
128031
134438
136343
137155
137022
137846
141946
149569
159354
170751
182006
193737
207791
223164
238849
254871
271263
286964
298457
309098
317820
322576
324851
323540
323118
322905
319313
310093
297894
282723
269448
257585
246193
239465
236059
235966
235695
233059
228044
220117
211542
204522
200666
196187
190612
186997
184413
180728
177061
175216
175020
175979
176325
175559
171741
165171
156842
151824
149724
146909
143093
140088
137362
133229
127422
120121
114323
108930
102665
99603.6
95172.4
88121.9
80773.8
73580
65704.7
56983.8
50415.6
44990.6
32374.4
10750.2
-564.786
81354
77646.6
80207.2
82698.5
83808
83922.8
83389.3
84219.5
86374.8
87780.5
89603.3
93890.3
98333.8
100822
103040
107576
112791
118464
122739
127514
133528
135231
135769
135990
137286
141510
149308
159100
169991
181372
193640
207846
223269
239248
255424
271671
287352
298723
309087
318125
323239
326076
325114
324194
323486
319399
310332
297539
282278
269576
257003
244970
238345
235809
236543
236848
234504
228523
220103
211247
204322
200809
195903
190008
186795
184656
180879
176678
175098
175231
176275
176579
175539
171419
164719
156523
152066
150161
147228
143068
140446
137906
133305
127839
120560
114403
108809
102677
100088
95573.4
88155.9
80404.4
72976
65123.9
56237.3
49630.1
44569.5
32022.4
10216.6
-1036.9
82197.4
77566.7
80250.5
82904
84024.9
84026.8
83311.1
84005.5
86078.5
87534.7
89611.2
94221.3
98569.5
100989
103240
107871
113254
118123
122228
127091
132285
133894
134447
135014
136635
141150
148878
158566
169097
180519
193606
208337
223870
239645
256349
272659
287785
298714
309516
318782
324339
327676
326555
325582
324520
319828
310487
297431
282126
269397
256776
243859
237214
235779
237226
238002
235804
228929
219775
211228
204289
201070
195679
188872
186725
185311
180682
176157
175074
175408
176354
176412
175210
171078
164146
156639
152269
150638
147742
143136
140995
138235
133384
128400
120815
114458
108891
103142
100627
95681.3
88042
80177.1
72272.7
64485.2
55378
48687
44135.5
31369.6
9690.08
-1222.31
82931.9
77529.6
80271.4
83045.4
84205.7
84089.1
83222.3
83829.7
85825.1
87454.7
89763
94421.6
98806.2
101189
103424
108098
113253
117538
121506
126180
130895
132772
133359
134164
135899
140680
148290
157930
168547
179807
193796
209165
224994
240532
257127
273497
288919
299439
309941
319783
325568
329216
328452
327296
325745
320506
311011
297684
282149
269330
256621
243088
236135
235752
238194
239147
236590
229306
219493
210980
204411
201598
195232
187302
186893
186248
180118
175630
175314
175591
175822
175717
174723
170861
164102
156732
152379
151161
148475
143206
141024
138816
133600
128595
121126
114800
109348
104013
101271
95658.7
87825.5
79740.7
71780.5
63638.4
54436.3
47640.6
43155.6
30646.3
9498.45
-989.57
83559.1
77561.2
80267.5
83131.3
84353
84096.6
83049.9
83675.6
85626
87523.5
90067.4
94588.3
99010.6
101380
103588
108253
113086
116675
120398
124853
129299
131604
132336
133507
135154
139892
147757
157463
168163
179663
194254
210379
225916
241414
258324
274099
290250
300771
310679
321089
327006
331370
330444
329178
327205
321404
311864
298046
282347
269585
256730
242528
235214
235626
239093
240182
237317
229526
219266
210510
204646
202077
194924
186316
186726
187025
179863
175076
174937
175813
175322
174037
173978
170634
163949
156846
152776
152266
149211
143158
140894
139355
133972
128659
121545
115672
110401
104525
101710
95571.3
87044.5
78975.6
71144
63051.9
53602
46613.7
41981.1
29368.2
9295.15
-247.644
84070.5
77616.3
80198.4
83162.1
84473.2
84076.7
82952.9
83661.1
85599.3
87718.6
90340
94747.2
99162.6
101553
103769
108184
112853
115857
119153
123218
127643
130283
131041
132721
134635
138964
146914
156671
167602
180100
194927
211798
226894
241707
260255
275170
291278
302766
312220
322329
328802
333750
332573
331134
328850
322527
313171
299078
282807
269958
256939
242147
234268
235376
239527
241227
238332
229665
218957
210290
205000
202271
194443
185663
186578
187561
180055
174488
173895
175482
174861
172659
172623
169824
163804
157415
153423
152952
149823
143429
141033
139535
134757
129389
122164
116530
111096
105105
101785
94892.5
85893.6
77946.4
70442.2
62446.9
52918
45808.2
40553.7
27580.4
9149.79
788.895
84482.3
77692.9
80097.7
83149.1
84509.7
84054.4
83015.9
83930.9
85631.4
87848.1
90642.7
94834.6
99224.1
101616
103769
108029
112385
114933
117926
121412
125846
128791
129239
131497
134212
137811
145840
156101
167626
180872
195823
213633
228096
242427
261780
276625
292594
305213
313937
323877
330881
335839
335120
333429
330205
324056
315290
300318
283636
270514
256978
242069
233690
234807
239586
242145
239005
230035
219003
209893
205360
202505
193961
185325
186508
187610
180628
173927
171985
174406
174276
172063
170995
168934
163772
158079
153958
153102
150910
143872
140889
139698
135738
130952
123377
117165
111575
105524
101428
94146.6
84689.6
76350.7
69464
61822.1
52266.7
44878.9
39169.4
25939.9
9037.51
1572.14
84779
77747.6
79991.1
83151.6
84582
84058.1
83242.9
84163.6
85607.1
87925.6
90888.4
94880.6
99201.5
101606
103635
107814
111887
113989
116415
119434
123825
126865
126886
129676
133599
137366
144570
155550
168467
181596
197003
215923
229520
243836
262831
278296
294428
307772
315696
324977
333754
338571
337838
335790
331647
325930
317189
301736
284919
271334
256927
242047
233257
233826
239597
242677
239106
230155
219144
209768
205460
202554
194014
185798
186142
187312
180988
173388
170107
172296
173383
171504
169908
167955
163753
158753
154540
153358
151562
144437
140983
139906
136947
132606
124985
117970
112004
105661
100977
93318.5
83529.3
74872.5
68211.8
61193.8
51916
44079
37451.6
24607
9356.24
1847.11
84931.5
77810.2
79837.1
83181.5
84640.6
84131.6
83576.4
84269.8
85454.5
88093.2
91043.1
94882
99199.7
101594
103465
107420
111281
113175
114806
117158
121293
124600
124382
127220
132768
137527
144434
154417
168151
182666
199151
218130
231207
245061
263218
280742
297259
309680
317401
327541
337398
341744
340802
337715
333966
328190
318553
303749
286434
271611
256982
241700
232501
232877
238993
242029
238415
229852
219376
209687
205541
202778
194482
186501
186035
187153
180849
172583
168669
170469
171778
169850
168618
167562
164014
159440
155560
153499
151729
145298
141122
139740
138130
134508
127237
118908
112208
106051
100822
92569.4
82519.2
73848.7
67186
60697.5
51640.6
43365.1
35941.5
23494
9885.31
2115.24
84907.7
77900.7
79727.8
83281.8
84795.1
84260.9
83943.3
84264.7
85353.3
88287.6
91228.9
94789.7
99108.8
101683
103189
106759
110306
111906
113324
114965
118237
121429
121952
124748
131176
137234
144795
154547
167482
183203
201241
219648
232570
246784
264181
282870
299964
311735
320222
331065
340761
344867
344058
341100
337431
330963
320216
305436
288551
272129
256162
240723
231244
230945
237997
241207
237271
229376
218792
209502
206323
203044
194706
187465
186745
187299
181038
171102
166384
168577
170668
168928
167012
166599
164482
160072
156434
153751
151761
146661
141341
139792
139391
136763
129939
119657
112665
106694
100870
92323.2
81560.9
72908.1
66258.6
60108.8
51651.6
42932.6
34618.8
23067.5
10817.8
2821.88
84745.3
77984.9
79807
83538
85025.1
84642.1
84316.2
84082.8
85392.2
88432.9
91317.6
94784
99000.9
101687
102895
105918
109024
109878
111377
113106
115549
117919
119598
122940
129137
135908
144602
154871
167566
182905
202084
220675
233858
248309
265957
285271
301933
313838
323243
334296
344033
348254
347688
345052
341193
334279
323103
307565
290219
273243
255389
238741
229216
228738
236886
240803
236462
228578
218065
209622
207405
203182
195059
189198
188207
187243
180702
169713
163550
166107
169379
168757
165985
165368
164516
160792
157047
153945
152081
147720
141630
139955
140509
139262
132391
121019
113508
107599
101242
91735.7
80532.1
72144.1
65800.7
59779.4
51599.3
42724.8
33985.3
23516.5
12521.2
3987.33
84526.7
78208.7
80032.1
83744.1
85485.2
85191.5
84576.9
83900.1
85438.4
88655
91351
94570.4
98885.9
101792
102674
104807
106842
107554
108985
110686
113096
115429
116866
120784
127814
133913
143232
154450
166793
183062
202622
220623
234809
249877
267738
287101
303885
316098
326169
337298
347025
351464
351214
348735
344760
337668
326337
310685
292846
274419
254918
237004
226635
226050
235794
241024
236082
228197
217886
209824
207977
203687
195858
190758
189320
188017
180797
168534
160827
163440
167912
168202
165209
164258
164390
161248
157375
154349
152277
147854
141570
140134
141570
141178
134034
122617
114529
108650
101950
91164.2
79931.9
71821.9
65759.7
59666.8
51438.3
42812
34022.3
24578.6
14585
5400.99
84310.7
78446.8
80347.9
83954.7
85972.1
85756.4
84860.7
84008.4
85436.1
88732.1
91306.8
94384.7
98850.2
101625
102230
103509
104370
104481
105664
107672
110079
112580
114476
118268
125214
132113
141680
152948
165627
182491
202082
220423
235652
251325
269320
288630
305608
318226
328828
339972
349639
354328
354447
352203
348259
341113
329673
314060
295985
276503
254689
234890
224073
223956
234950
241739
235905
227445
217391
210175
208757
204285
196334
191855
190537
189144
181054
167340
158550
161159
166500
167299
164363
163294
164337
161734
157672
154719
152273
147521
141355
140334
142688
142316
135248
124091
115523
109878
102684
90717.4
79346.7
71907.9
65982
59586.3
51506.6
43234.3
34376.4
25611.8
16455.5
7003.86
84101
78612
80753.7
84254.1
86187.2
86174.8
85383.4
84182.8
85321.9
88831.5
91208.1
94529.9
98973.7
101320
101540
101376
101044
100689
101859
104314
106814
109351
111406
115266
122182
129910
140008
151379
164584
181651
201227
219996
236194
252493
270580
289766
306934
320015
331052
342143
351687
356706
357260
355376
351620
344537
333084
317600
299351
278995
254954
232277
221193
222307
234179
241973
235946
226772
216428
210546
209848
204620
196344
192861
191746
190193
181800
166041
156133
158735
165247
166591
163603
162175
164032
162361
158193
155056
152000
147164
141236
140813
143811
143006
136179
125344
116743
111000
103296
90727.9
79019.6
72052.9
66212.8
59560.3
51735.3
43650
34834.5
26489
18528.3
9057.06
83800.6
78711.8
81009.5
84540.1
86294.5
86487.1
85868.8
84520.8
85097.8
88484.3
91399.7
94873
98828.2
100922
100681
98995.9
97290.6
96515.8
97945
100757
103198
105792
108121
112368
119618
128071
138658
150223
163713
180730
200115
219154
236245
253137
271380
290481
307863
321451
332834
343808
353171
358486
359543
358086
354647
347744
336394
321159
302874
281767
255479
229515
218185
221268
233602
241522
236024
226182
215813
211010
210766
204868
196530
194063
193158
191707
182527
164561
153574
156043
164167
166230
162883
161077
163639
162994
158791
155144
151584
146660
141289
141355
144489
143376
137046
126608
118062
112164
104134
91091.6
78731.2
71952.4
66306.2
59688.5
52076.8
44148.9
35427.2
27683.9
21035.4
11415.2
83311.7
78873.8
81152.6
84659.8
86307.4
86706.8
86174.1
84972.8
85195
87815.1
91397.4
95080.1
98370
100518
99898.9
96698.2
93457.4
92316.1
94073.6
96931
99362
102223
105117
109999
117612
126692
137578
149404
163007
179820
198947
218164
235943
253377
271802
290913
308502
322529
334141
344918
354027
359499
361030
360067
357058
350575
339413
324451
306247
284698
256141
227442
215594
220260
233228
240931
236419
225920
215433
211684
211441
204902
196530
194697
194630
193620
183602
163132
150786
153307
163280
166182
162422
160254
163183
163702
159502
155036
150978
146095
141447
141786
144700
143585
137633
127631
119324
113014
105191
91810
78430.1
71604.7
66241.9
59977
52491.7
44634.6
36189.4
29355.5
24227.8
14212
82753.4
79047.6
81193.1
84585.6
86427.9
86888
86232.5
85257.3
85469.6
87510.7
91114
94983.7
97870.2
99900.9
99246.4
94490.6
89603.4
88312.8
90495.4
93052.8
95647.4
98964.1
102489
108028
116029
125623
136724
148750
162371
178913
197787
217021
235126
253014
271718
290988
308835
323232
335019
345648
354557
360061
361839
361141
358433
352501
341907
327273
309228
287690
257365
225841
213372
219372
232584
240692
237298
226017
215461
212296
211872
204855
196149
194563
195359
195335
184713
162403
148660
150917
162355
166075
162310
160005
162711
164238
160303
154902
150363
145496
141539
142159
144739
143623
137806
128404
120245
113519
106233
92737.8
78454.5
71171.6
66003.1
60255.3
52921.8
45075.3
37290.4
31417.6
28070.2
16956.4
82047.5
79203.3
81225.6
84428.3
86477.4
87045
86375.2
85424.8
85602.7
87421.3
90691.4
94518.3
97583.7
99576.8
98416
92303.8
85732
84631.9
87364.6
89530.1
92237.1
96082.3
100174
106252
114608
124573
135867
148078
161750
178101
196730
215862
234106
252203
271116
290557
308673
323470
335514
346108
354839
360240
362099
361506
359302
353748
343628
329024
311693
290579
259033
225230
211295
218099
231685
240617
238134
226757
216173
212969
212005
204871
195741
193896
195390
196132
185470
162348
147413
148952
161238
165885
162370
160186
162543
164742
160867
154683
149638
144782
141573
142577
144768
143553
137706
128877
120785
113993
107338
94003.5
78797
70716.1
65544.4
60395.5
53558.1
45862.4
38556.6
33724.9
32602.2
19432.2
81211
79328.9
81233.8
84208.5
86457.6
87159
86592.1
85642.4
85672.9
87321.5
90311.6
94037.6
97380.4
99324.2
97440.2
90288.2
82255.4
81588.6
84744.3
86500.2
89020
93351.2
97933.2
104631
113374
123608
135045
147460
161185
177392
195867
214820
233040
251230
270238
289717
307952
323125
335503
346168
354781
360141
362147
361732
359637
354436
344846
330509
313610
292712
260944
225015
209335
216464
230337
240515
238932
228102
217411
213540
212102
204992
195511
193025
195087
196470
186420
162607
146372
147250
160131
165482
162300
160461
162912
165348
161245
154485
148929
143969
141373
143080
144923
143458
137517
129195
121107
114300
108350
95535.5
79629.6
70464
65153.6
60516.6
54059.4
46578.3
40047.9
36360.7
37735.8
22255.3
80272.9
79394.2
81148.4
83966.2
86386.3
87225.4
86756.2
85855
85768.2
87138.6
89835
93538.3
97263.2
99136.5
96821.1
88751.2
79603.5
79075.6
82639.2
83637.5
85964.2
90808.8
95810
103061
112243
122818
134363
146837
160589
176752
195074
213852
232069
250315
269315
288701
306913
322348
335080
345884
354447
359843
362038
361874
359818
354839
345673
331778
315153
294855
263261
225717
208305
214339
228381
240147
239521
229487
218878
214186
212181
205338
195435
192135
194636
197041
187833
164021
146266
145696
158837
164644
161953
160798
163578
165979
161712
154220
148050
143150
141243
143619
145036
143145
137428
129767
121684
114607
109274
97082.9
80717.7
70661.3
65049.7
60541
54366.3
47027.2
41737.8
39563.5
43048.3
25594.6
79300.1
79371
80987
83623.8
86243.6
87264.1
86925
86136.1
85962.1
87010.8
89389.9
92914.2
96982.4
99076.2
96527.7
87709.5
77965.6
77192.1
80259.3
80955.6
83524.5
88367.6
93945.1
101737
111251
122006
133610
146138
159939
176074
194259
212909
231150
249465
268443
287686
305791
321366
334348
345271
353828
359283
361692
361798
360018
355296
346655
333283
316640
296910
267327
228348
208006
212170
226753
239940
239801
230586
220437
215092
212448
205885
195298
191118
194515
198344
189245
166086
147456
144672
157326
162973
161344
161663
164161
166522
162475
153935
146933
142426
141509
144078
145348
142930
137266
130266
122197
115250
110221
98582.7
81923.8
71013.8
65312.9
60643.9
54691
47735.1
43260.9
42952.5
47886.2
28498.9
78273.1
79258.5
80751
83208.5
85989.1
87241.2
87070.8
86405.3
86204.9
86952.9
88902.1
92117.3
96427.4
98888
96415.8
87137.1
77106.2
75799.8
77885.1
78563.5
81536.7
86452.5
92501.5
100528
110156
121014
132672
145260
159193
175355
193419
211986
230282
248676
267621
286712
304676
320308
333458
344460
353037
358603
361239
361621
360010
355501
347285
334958
319099
300025
273275
232394
208347
211724
226509
239860
239475
231120
222504
217399
213672
205810
194783
190449
195036
200012
190460
168517
149794
143930
155175
161146
160986
163200
164666
166791
163380
153665
145829
142306
142299
144527
145979
142836
136882
130214
122537
116148
111240
99467.7
82853
71835.2
65592.2
61002.9
55416.3
48460.3
44384.5
46144.6
52075.4
30656.8
77241.1
79067.6
80439.5
82715.6
85617.1
87166.2
87185.8
86640.9
86484.2
86997.1
88474
91246.1
95724.7
98521.2
96433.6
86868.9
76862.3
74779
76010.9
77024.6
80160.4
85068.3
91137.7
99189.2
108837
119763
131547
144270
158357
174556
192528
211045
229421
247911
266839
285781
303594
319239
332510
343584
352204
357919
360800
361395
359858
355500
347699
336331
321475
302759
278259
236695
210259
213142
227594
239863
237828
230296
225313
220646
214394
206136
194793
189884
195333
201115
191095
170851
152791
143198
152429
159954
161439
164364
164882
166628
163906
153639
145020
142280
142859
144918
146509
142963
136648
129899
122345
116773
112460
99734.7
83944.6
72512.4
65492.7
61608.6
56237.8
49108.8
45402.9
48968.8
55711.1
32297.2
76307.7
78834.5
80117.7
82145.1
85151.2
87056.9
87300.1
86905.9
86816.3
87122.4
88051.7
90310.7
94833.5
98162.5
96342.1
87057.9
77294
74538.1
75211.7
76209
79198.2
83839.1
89784.8
97765.4
107408
118363
130275
143179
157459
173705
191592
210078
228549
247149
266076
284881
302552
318190
331552
342707
351400
357266
360353
361061
359502
355138
347587
336834
322639
303967
280552
239683
212689
215183
228634
238954
236406
230442
227711
222744
214392
206142
194567
189276
195882
202328
190765
172448
155468
142739
150106
159442
162470
164734
164589
166632
164085
152512
144521
142805
144166
145910
146191
142965
136936
130274
122501
116914
113306
99492.4
84617.7
72947.6
65326.1
62395.1
56936.1
49551.2
46444.9
51442.5
58987.6
33603.2
75553.2
78566.8
79761.4
81654.2
84789
86933.2
87383.8
87153.7
87091.4
87197
87604.2
89428.1
93983.8
97721
96292
87232.9
78054.6
74935.3
74855.4
75793.4
78493.9
82807.6
88572.5
96370.9
105950
116941
128990
142093
156570
172861
190664
209120
227694
246419
265357
284042
301588
317209
330653
341895
350680
356692
359937
360688
358986
354431
346893
336379
322435
303518
280390
241457
215003
217036
229071
238647
235597
229979
229180
224311
213415
204842
195430
189729
196397
202710
189766
173208
157603
142880
148743
158877
162907
165383
164472
166211
164497
151658
143642
143629
145576
146552
146522
143808
136544
130439
123776
117500
113487
99118.6
85213
73105.4
64755.3
62694.7
57011.8
50230.5
47585.5
53511.5
62034.2
34728.5
74914.1
78283.6
79510
81359.3
84617.6
86841.5
87301.7
87338.1
87354.4
87276.6
87200.9
88819.8
93555.6
97030.3
95980.5
87394.9
78801.8
75515.6
74907
75674.2
78027
82010.5
87602.6
95228.9
104713
115703
127865
141160
155829
172166
189890
208316
226987
245844
264807
283400
300834
316434
329952
341291
350184
356342
359728
360481
358576
353754
346047
335588
321583
301887
278764
243218
217526
218819
229710
238392
234486
228950
228864
225227
213267
203512
196480
190768
196617
202480
188860
173558
159203
143388
147673
158205
162794
165274
164176
165463
164455
151732
143097
143999
146033
146880
147588
143855
135457
130358
125147
119028
113790
98464.2
85339.5
72969.8
64348.9
62786.9
56454.3
50726.6
48793.9
55114.2
64819.4
35764.3
74445.6
78046
79430
81282.4
84633.5
86684.1
87175
87588.4
87644.3
87345.2
86850.2
88498.4
93301.5
96144.3
95362.5
87484.4
79336.5
76103.3
75196
75706
77806.9
81593.6
87056.6
94540
103912
114877
127122
140585
155428
171812
189476
207878
226632
245600
264597
283123
300473
316056
329624
341047
350047
356340
359841
360567
358476
353385
345400
334956
320861
299863
276410
245275
220163
219856
230526
238621
233500
227907
228420
225107
213443
203302
196316
191494
197312
201918
188640
173789
159711
143840
146769
156850
162656
165288
163865
164949
163157
151371
143666
144917
146257
146682
147936
143095
134694
130667
125900
119482
113468
98026.3
84934.6
72653.6
64156.8
62167.4
55883.6
51050.6
49581
56667.8
67732.9
36790.8
74255.6
77978.2
79511.6
81394.7
84619.2
86576.2
87082.1
87848.8
87993.8
87225.2
86727
88643.1
93353.4
95649.5
94786.1
87356.5
79546.9
76553.9
75517.3
75928.9
77887.1
81553.5
86943
94333.8
103629
114573
126871
140457
155433
171870
189505
207902
226723
245772
264801
283287
300581
316146
329731
341184
350243
356621
360180
360870
358633
353316
345026
334464
320426
297756
273478
246993
223129
220189
230415
238501
233532
227585
227777
224440
213818
203579
196461
192224
197336
201260
188738
174164
159918
144212
146178
155733
161999
165540
163946
163721
161968
151793
144557
145750
146348
146254
147785
142506
134511
130895
126131
119070
112280
97266.7
84164.2
72167.6
63747.6
61489.6
55853.3
51190.9
50252.7
57953.6
69711.5
37548.7
74355.3
78044.7
79592.3
81596
84635.9
86469.9
87137
88095.1
88270.7
87183.2
86865.8
89109.7
93683
95761.9
94812.1
87547.8
79821.3
76957.6
75856.2
76207.9
78077.4
81676.3
87044.5
94394.3
103669
114602
126917
140558
155611
172101
189754
208176
227057
246171
265234
283717
300989
316530
330083
341521
350604
357005
360559
361215
358895
353424
344810
333986
319821
296569
271922
247370
224353
220576
230227
237881
233931
227697
227423
224101
213870
203056
196343
193273
197490
200424
188639
174209
159955
144951
146166
155140
161542
165499
164132
163476
161420
151654
144647
145675
146376
146363
147411
142100
134525
131074
125970
118645
111537
96635.3
83508.8
71773.8
63291.2
60982.6
55912.9
51329.5
50736.9
58378.4
70074.6
37516.9
74543.8
78126.4
79753.8
81755.4
84745.8
86553
87221.2
88213
88420.5
87294.7
87073.3
89653.3
94155.3
96289.4
95392.2
87973.5
80199.3
77228.1
76053.5
76329.8
78110.9
81670
87039.6
94374.7
103666
114572
126896
140551
155645
172187
189882
208352
227289
246459
265559
284068
301342
316873
330444
341898
350994
357438
360962
361599
359265
353682
344910
333815
319455
296424
271144
246471
224166
220245
230069
237826
234092
227833
227326
223858
213875
203013
196224
193539
197697
200200
188571
173993
159581
145272
146338
155030
161454
165275
164276
163562
161005
151617
144700
145481
146348
146429
147206
142019
134762
131186
125907
118507
111166
96330.7
83086.8
71452.2
63012.9
60542.3
55868.5
51415.1
50844.1
58361
69146
36358.5
)
;

boundaryField
{
    inlet
    {
        type            zeroGradient;
    }
    outlet
    {
        type            fixedValue;
        value           uniform 0;
    }
    lowerWall
    {