/*--------------------------------*- C++ -*----------------------------------*\
| =========                 |                                                 |
| \\      /  F ield         | foam-extend: Open Source CFD                    |
|  \\    /   O peration     | Version:     5.0                                |
|   \\  /    A nd           | Web:         http://www.foam-extend.org         |
|    \\/     M anipulation  |                                                 |
\*---------------------------------------------------------------------------*/
FoamFile
{
    version     2.0;
    format      ascii;
    class       surfaceScalarField;
    location    "0.06";
    object      phi;
}
// * * * * * * * * * * * * * * * * * * * * * * * * * * * * * * * * * * * * * //

dimensions      [0 3 -1 0 0 0 0];

internalField   nonuniform List<scalar> 
7860
(
0.0179603
-0.0129603
0.0718911
-0.0539116
0.120146
-0.0482374
0.182508
-0.0623426
0.226374
-0.0438461
0.2369
-0.0105054
0.224389
0.0125332
0.200115
0.0242976
0.194531
0.00561138
0.184869
0.00969069
0.155432
0.0294687
0.15049
0.00497572
0.148561
0.00196573
0.148764
-0.000164589
0.165692
-0.0168874
0.159079
0.00665716
0.112395
0.0467297
0.13302
-0.0205765
0.163766
-0.0306964
0.204306
-0.0404899
0.246998
-0.0426399
0.290393
-0.0433427
0.268274
0.022172
0.170912
0.097414
0.128594
0.0423707
0.0281339
0.100513
-0.128306
0.156493
-0.207275
0.0790212
-0.236388
0.0291666
-0.311551
0.0752177
-0.390093
0.0785977
-0.426758
0.0367182
-0.43429
0.00758445
-0.421299
-0.0129398
-0.39666
-0.0245892
-0.356047
-0.0405662
-0.272568
-0.0834347
-0.163257
-0.109271
-0.0561264
-0.107094
0.0396991
-0.0957918
0.130425
-0.0906952
0.247178
-0.116727
0.375182
-0.127982
0.44283
-0.0676291
0.486227
-0.0433822
0.558743
-0.0725045
0.694476
-0.135723
0.831204
-0.136722
0.890677
-0.0594685
0.857621
0.0330575
0.776055
0.0815657
0.650559
0.125494
0.528584
0.121972
0.43369
0.0948897
0.377606
0.0560787
0.352616
0.0249838
0.335254
0.0173562
0.357494
-0.0222471
0.391468
-0.0339811
0.41556
-0.0240987
0.404443
0.0111103
0.355856
0.04858
0.315879
0.0399694
0.282629
0.0332436
0.261511
0.0211104
0.24628
0.0152238
0.21716
0.0291125
0.176167
0.0409858
0.122817
0.0533429
0.0944445
0.028364
0.130243
-0.0358067
0.185318
-0.0550847
0.251163
-0.0658539
0.350193
-0.0990399
0.433428
-0.083244
0.443911
-0.0104935
0.413504
0.0303972
0.392998
0.0204961
0.387102
0.00588682
0.369367
0.0177257
0.356703
0.0126543
0.36784
-0.0111455
0.395143
-0.0273122
0.443974
-0.0488411
0.476231
-0.0322659
0.493463
-0.017241
0.517062
-0.0236082
0.50977
0.00728416
0.494027
0.0157346
0.49372
0.000299999
0.502347
-0.00863453
0.535814
-0.0334742
0.57772
-0.0419127
0.592864
-0.0151508
0.580496
0.0123613
0.602104
-0.0216133
0.654753
-0.0526532
0.700029
-0.04528
0.690596
0.00943093
-0.0277606
0.143415
-0.151357
0.281706
-0.192162
0.378176
-0.144669
0.490033
-0.174157
0.597239
-0.151009
0.639273
-0.0524924
0.610175
0.0416814
0.568629
0.0658985
0.543926
0.0303752
0.49619
0.0574913
0.473284
0.0524445
0.472713
0.00562243
0.434963
0.0397958
0.438404
-0.00352456
0.453057
-0.0314564
0.494416
-0.0346121
0.54152
-0.000281114
0.533972
-0.0129338
0.6174
-0.114028
0.7289
-0.151893
0.74038
-0.0540217
0.672868
0.0242662
0.60182
0.0933178
0.53393
0.165402
0.370704
0.205697
0.212803
0.258515
0.0584204
0.310974
-0.0665601
0.2041
-0.182435
0.145142
-0.38088
0.273765
-0.507787
0.205607
-0.521477
0.0505068
-0.548869
0.0350732
-0.538981
-0.0227342
-0.452362
-0.111118
-0.365282
-0.127562
-0.250156
-0.198481
-0.076142
-0.283213
0.0708612
-0.254033
0.195069
-0.219941
0.36586
-0.261433
0.571474
-0.322292
0.801653
-0.35812
0.969024
-0.234968
1.10499
-0.179318
1.2804
-0.247896
1.54598
-0.401291
1.75959
-0.350323
1.83497
-0.134841
1.79259
0.075437
1.65826
0.215894
1.43026
0.353481
1.21139
0.340842
1.04074
0.265521
0.91621
0.180602
0.875824
0.0653569
0.869622
0.0235445
0.904109
-0.0567489
0.980988
-0.110874
1.03908
-0.0822079
1.01354
0.036637
0.902903
0.159206
0.803269
0.139589
0.728983
0.107515
0.630284
0.119795
0.601654
0.0438385
0.580209
0.0505421
0.5015
0.119678
0.416073
0.138753
0.358952
0.0854665
0.420174
-0.0970478
0.549227
-0.184158
0.699511
-0.216159
0.898444
-0.297994
1.0327
-0.217519
1.04504
-0.0228564
1.01083
0.064585
0.987779
0.0435255
0.994199
-0.00055337
0.962758
0.0491467
0.903311
0.0720815
0.910652
-0.0185059
0.956517
-0.0731956
1.04109
-0.133435
1.1304
-0.121596
1.16356
-0.0504175
1.21789
-0.0779546
1.24213
-0.0169685
1.19816
0.0596822
1.15688
0.0415647
1.18244
-0.0342037
1.23968
-0.0907309
1.30058
-0.102828
1.34039
-0.0549696
1.31557
0.0371699
1.33807
-0.0441322
1.36897
-0.0835552
1.3543
-0.0306203
1.34507
0.0186648
-0.0717592
0.237811
-0.384147
0.441292
-0.395604
0.603337
-0.306675
0.710565
-0.281345
0.801697
-0.242099
0.886745
-0.137495
0.892924
0.0355519
0.848287
0.110589
0.769409
0.109311
0.741202
0.0857591
0.744475
0.0492377
0.713675
0.0364935
0.69994
0.0536004
0.692542
0.0039443
0.668893
-0.00773396
0.708348
-0.0739889
0.852108
-0.143959
0.94206
-0.102802
0.911574
-0.083458
0.889742
-0.129978
0.953043
-0.117241
0.945352
0.0320389
0.873694
0.165059
0.815095
0.224086
0.65719
0.363689
0.431234
0.484558
0.306691
0.435602
0.194738
0.316139
0.00878894
0.331179
-0.143198
0.425843
-0.224131
0.28663
-0.301758
0.128222
-0.319941
0.0533408
-0.296909
-0.0456836
-0.261567
-0.146379
-0.150331
-0.238719
-0.0158771
-0.332863
0.0986499
-0.397675
0.210347
-0.365673
0.326052
-0.335592
0.45221
-0.38754
0.656067
-0.526103
0.888695
-0.59071
1.14126
-0.487502
1.3886
-0.426632
1.63146
-0.490734
1.87997
-0.649793
2.03491
-0.50525
2.0863
-0.186228
2.0916
0.0701326
1.98899
0.318502
1.76644
0.576028
1.52394
0.583334
1.37414
0.415308
1.25253
0.302201
1.1985
0.119378
1.26239
-0.0403609
1.35827
-0.152638
1.38445
-0.137073
1.35802
-0.0557884
1.32973
0.0649133
1.22923
0.2597
1.14004
0.228757
1.05111
0.19644
0.918703
0.252184
0.886769
0.0757568
0.888616
0.0486788
0.823361
0.184917
0.743844
0.218252
0.710855
0.118436
0.766701
-0.152913
0.88965
-0.307127
1.07453
-0.401063
1.27973
-0.503214
1.41606
-0.353875
1.43408
-0.0408956
1.38449
0.114151
1.37429
0.0537066
1.40908
-0.0353664
1.37521
0.0829952
1.30982
0.137453
1.27202
0.0192748
1.3389
-0.140093
1.42565
-0.220207
1.50582
-0.20178
1.60117
-0.145783
1.67516
-0.151968
1.73656
-0.0783785
1.70596
0.0902629
1.6354
0.112112
1.61073
-0.00955501
1.6656
-0.145616
1.71684
-0.154073
1.72805
-0.0661943
1.72979
0.0354172
1.6798
0.0058473
1.63994
-0.0437034
1.59127
0.0180489
1.46724
0.142689
-0.0489835
0.285424
-0.664552
0.502589
-0.612735
0.647551
-0.451603
0.796784
-0.430542
0.902336
-0.347612
0.964416
-0.199533
0.990092
0.00992096
0.967865
0.132864
0.913038
0.164189
0.882663
0.116187
0.859932
0.0720276
0.797418
0.0990663
0.826882
0.0241948
0.860052
-0.0291651
0.844009
0.00837366
0.895838
-0.12575
1.0461
-0.294142
1.15057
-0.207195
1.10474
-0.0375543
1.0459
-0.0710719
1.08853
-0.159803
1.09257
0.0280693
1.036
0.221706
0.873753
0.386404
0.579227
0.65829
0.427502
0.636358
0.32769
0.535491
0.106631
0.537276
-0.123375
0.561265
-0.216279
0.518829
-0.21391
0.28434
-0.264437
0.178826
-0.353779
0.142758
-0.355249
-0.044141
-0.306244
-0.195315
-0.230598
-0.314297
-0.119633
-0.443763
-0.00811913
-0.50913
0.113629
-0.48737
0.20438
-0.426297
0.345853
-0.52897
0.529914
-0.710126
0.741379
-0.802143
1.07212
-0.818221
1.43853
-0.793014
1.7272
-0.779382
1.89033
-0.812917
2.01393
-0.628836
2.06672
-0.239014
2.09101
0.0458423
2.10399
0.305518
1.94956
0.730452
1.77089
0.761996
1.63646
0.549733
1.45797
0.480679
1.39418
0.183154
1.46732
-0.113511
1.54912
-0.234449
1.6192
-0.207167
1.62653
-0.0631277
1.50174
0.189685
1.42462
0.336813
1.3955
0.257868
1.26429
0.327634
1.12424
0.392224
1.09049
0.109489
1.10013
0.0390236
1.04699
0.238045
0.989214
0.276006
0.999414
0.108218
1.06774
-0.221264
1.17861
-0.418012
1.35054
-0.573008
1.4894
-0.6421
1.57914
-0.443637
1.61419
-0.0759636
1.59837
0.129955
1.58525
0.0668004
1.59262
-0.0427564
1.59528
0.0803153
1.53472
0.197998
1.50309
0.0508849
1.60866
-0.245677
1.71055
-0.32211
1.74695
-0.238199
1.84593
-0.244779
1.94705
-0.253103
1.94981
-0.0811518
1.92595
0.114105
1.91286
0.12519
1.87466
0.028632
1.86752
-0.138489
1.85564
-0.142206
1.8543
-0.0648697
1.87328
0.0164325
1.76449
0.114627
1.57468
0.146106
1.36817
0.224552
1.27569
0.235164
-0.0970571
0.276115
-0.935651
0.500293
-0.836881
0.671844
-0.623122
0.827423
-0.586086
0.938364
-0.458516
1.00637
-0.267501
1.04375
-0.0274114
1.03174
0.144925
0.978108
0.21787
0.933878
0.160468
0.872458
0.133502
0.866101
0.105478
0.898318
-0.00796643
0.904425
-0.0352143
0.992985
-0.0801268
1.02599
-0.158691
1.0756
-0.34367
1.13683
-0.26836
1.14667
-0.0473288
1.1533
-0.077636
1.07344
-0.0798782
0.967387
0.13419
0.889866
0.299293
0.716029
0.560306
0.42187
0.952518
0.226345
0.831953
0.0968003
0.665109
-0.127812
0.761961
-0.373404
0.806933
-0.476787
0.62229
-0.510601
0.31823
-0.592707
0.261004
-0.641689
0.191812
-0.602954
-0.0828066
-0.562063
-0.236143
-0.568646
-0.307653
-0.500947
-0.511401
-0.411037
-0.598984
-0.349816
-0.548542
-0.193782
-0.582288
0.0135606
-0.736273
0.216398
-0.912928
0.464073
-1.04979
0.804479
-1.1586
1.2317
-1.22021
1.58264
-1.13031
1.72801
-0.958274
1.78414
-0.684966
1.8938
-0.348674
1.98384
-0.0441909
1.98425
0.305107
1.95517
0.75952
1.81096
0.906207
1.63443
0.726253
1.53864
0.576458
1.47006
0.251722
1.48554
-0.129003
1.60877
-0.357685
1.70076
-0.299172
1.68189
-0.0442713
1.59991
0.271652
1.56169
0.375024
1.50232
0.317223
1.35703
0.472916
1.24542
0.503824
1.2047
0.150194
1.2188
0.0249125
1.18623
0.270593
1.12993
0.332294
1.15992
0.0782089
1.22483
-0.286183
1.29926
-0.492461
1.40699
-0.680762
1.46552
-0.700642
1.49458
-0.472717
1.54491
-0.126318
1.57609
0.0987583
1.56013
0.0827403
1.57909
-0.0617308
1.62759
0.0317947
1.60188
0.223696
1.60697
0.045779
1.69829
-0.337009
1.75786
-0.381701
1.83688
-0.317234
1.92433
-0.332241
2.00579
-0.334584
2.03247
-0.107846
2.00384
0.142722
1.97833
0.15069
1.95342
0.0535274
1.91835
-0.103428
1.87763
-0.1015
1.83061
-0.0178582
1.76302
0.084013
1.61918
0.258461
1.34798
0.417305
1.05686
0.515666
0.906812
0.385207
-0.121651
0.246903
-1.17754
0.456989
-1.04694
0.646873
-0.812976
0.82832
-0.767499
0.938196
-0.568355
1.0004
-0.329663
1.04387
-0.0708364
1.03325
0.155584
1.01081
0.240356
0.955203
0.216132
0.898715
0.190045
0.900777
0.103471
0.965633
-0.0727676
1.03841
-0.10794
1.04506
-0.086705
1.037
-0.150567
1.01871
-0.325316
1.02779
-0.277368
1.07774
-0.0972223
1.01201
-0.0118454
0.819273
0.112917
0.69871
0.254814
0.514201
0.483863
0.270546
0.804023
0.13635
1.08678
-0.00773841
0.97611
-0.225118
0.882558
-0.49638
1.03329
-0.754607
1.06523
-0.892061
0.759817
-1.03255
0.458786
-1.13305
0.361578
-1.12245
0.181282
-1.14551
-0.0596806
-1.19149
-0.190098
-1.18385
-0.315233
-1.10806
-0.587123
-1.04169
-0.665303
-0.909293
-0.680886
-0.705532
-0.786004
-0.448197
-0.993568
-0.1898
-1.17129
0.0692832
-1.30885
0.441471
-1.53077
0.861185
-1.63991
1.17495
-1.44406
1.37797
-1.16128
1.49541
-0.802401
1.62814
-0.481404
1.75071
-0.166759
1.83295
0.222863
1.88209
0.710379
1.75404
1.03425
1.60394
0.876348
1.51695
0.663432
1.42976
0.338906
1.47703
-0.176283
1.59522
-0.475882
1.65636
-0.360328
1.65214
-0.0400607
1.60665
0.317129
1.58717
0.394488
1.50706
0.397325
1.39701
0.582959
1.35792
0.542898
1.33193
0.17617
1.28277
0.0740604
1.26245
0.290905
1.22592
0.368806
1.22899
0.075129
1.28679
-0.343995
1.31433
-0.520017
1.31056
-0.677019
1.25824
-0.648332
1.21085
-0.425344
1.25549
-0.170979
1.37375
-0.0195127
1.44446
0.0120195
1.41049
-0.0277839
1.43723
0.00504697
1.54163
0.119278
1.56844
0.018957
1.5871
-0.355679
1.69273
-0.487353
1.80026
-0.424777
1.8558
-0.387792
1.89968
-0.378477
1.94707
-0.155254
1.95508
0.134705
1.89822
0.20754
1.88331
0.0684245
1.85534
-0.0754746
1.76644
-0.0126039
1.70313
0.0454426
1.5506
0.236537
1.29713
0.511921
0.989745
0.724683
0.69281
0.812599
0.486298
0.591716
-0.0562212
0.208909
-1.38143
0.391888
-1.22989
0.57157
-0.992627
0.763038
-0.958934
0.935251
-0.740533
1.01895
-0.413329
1.04913
-0.100969
1.0603
0.144454
1.03298
0.267721
0.956591
0.292574
0.911291
0.235397
0.909773
0.10504
0.954637
-0.11758
1.01922
-0.172463
1.05254
-0.119969
1.02079
-0.11875
0.927592
-0.232057
0.961328
-0.311045
0.965994
-0.101832
0.772309
0.181896
0.516841
0.36844
0.342159
0.429552
0.134349
0.691731
-0.035762
0.974194
-0.165316
1.2164
-0.47771
1.28857
-0.791545
1.19646
-1.09691
1.33872
-1.33754
1.30594
-1.45913
0.881473
-1.62395
0.623666
-1.7976
0.535294
-1.86302
0.246776
-1.88117
-0.0414651
-1.88838
-0.182823
-1.89615
-0.3074
-1.84445
-0.638757
-1.68968
-0.820008
-1.51759
-0.852925
-1.30353
-1.00003
-1.04792
-1.24914
-0.725565
-1.49363
-0.366354
-1.66804
-0.0212518
-1.87585
0.310658
-1.9718
0.669085
-1.80248
0.945738
-1.43793
1.08228
-0.938934
1.27657
-0.675694
1.52092
-0.411111
1.64685
0.0969293
1.63428
0.722945
1.60392
1.0646
1.51272
0.967546
1.41554
0.760599
1.36526
0.389181
1.39537
-0.206404
1.49965
-0.580167
1.53356
-0.394253
1.52124
-0.0277466
1.51093
0.327419
1.50756
0.397849
1.4442
0.460677
1.41489
0.612252
1.41466
0.543127
1.35801
0.232803
1.30489
0.127168
1.25896
0.336826
1.21168
0.416072
1.22011
0.0666851
1.21775
-0.34165
1.17245
-0.47473
1.09688
-0.601467
0.970689
-0.522157
0.894742
-0.349411
0.886423
-0.162672
0.982196
-0.115298
1.14555
-0.151344
1.16255
-0.0448009
1.13042
0.037164
1.22322
0.0264657
1.35757
-0.1154
1.39171
-0.389831
1.46879
-0.56445
1.61683
-0.572835
1.69356
-0.464531
1.68794
-0.37287
1.71716
-0.184485
1.7493
0.10256
1.75482
0.202007
1.74966
0.073577
1.65572
0.0184558
1.57768
0.0654206
1.46092
0.162193
1.21095
0.486505
0.972479
0.750386
0.651135
1.04602
0.308985
1.15475
0.148677
0.752023
-0.031341
0.171432
-1.54785
0.32986
-1.38829
0.487716
-1.15046
0.658155
-1.12934
0.847161
-0.929506
0.991782
-0.557913
1.02225
-0.131395
1.0169
0.149838
1.00431
0.280352
0.948034
0.3489
0.927049
0.256431
0.955208
0.0769276
0.980782
-0.143105
1.01808
-0.209709
1.01901
-0.12084
0.962307
-0.0619891
0.864786
-0.13448
0.714465
-0.16067
0.566349
0.0463368
0.441031
0.307264
0.212127
0.597394
-0.138867
0.780599
-0.392543
0.945465
-0.630735
1.21244
-0.85964
1.44536
-1.02652
1.45552
-1.28747
1.45748
-1.62943
1.68075
-1.89618
1.57276
-2.14996
1.13531
-2.3777
0.851466
-2.49068
0.648338
-2.62654
0.382697
-2.69335
0.0254102
-2.64504
-0.231073
-2.5911
-0.361281
-2.49557
-0.734223
-2.3491
-0.966423
-2.16772
-1.03425
-1.94461
-1.22311
-1.65093
-1.5428
-1.32092
-1.82361
-0.943262
-2.04568
-0.558404
-2.2607
-0.229788
-2.3004
0.0696024
-2.10186
0.331912
-1.70023
0.573693
-1.18071
0.849233
-0.951233
1.1443
-0.706181
1.27041
-0.0291854
1.34545
0.647905
1.41636
0.993693
1.31668
1.06722
1.21958
0.857696
1.23115
0.3776
1.24561
-0.220871
1.22507
-0.559639
1.25699
-0.426181
1.29134
-0.0621062
1.31387
0.304872
1.33328
0.378435
1.32781
0.466139
1.3054
0.634646
1.28519
0.563331
1.27185
0.246128
1.23081
0.168204
1.18722
0.380396
1.15479
0.448493
1.1294
0.0920686
1.04905
-0.261317
0.926613
-0.352308
0.767785
-0.442654
0.615338
-0.369723
0.527908
-0.261992
0.539865
-0.174639
0.565042
-0.140485
0.677461
-0.263774
0.82192
-0.189272
0.843513
0.01556
0.942109
-0.072141
1.05824
-0.231542
1.06385
-0.395449
1.14763
-0.648249
1.23403
-0.65924
1.30452
-0.535032
1.3384
-0.406769
1.3714
-0.217492
1.45461
0.0193423
1.45781
0.198793
1.40477
0.126608
1.38176
0.0414616
1.27719
0.169984
1.02646
0.412916
0.792385
0.72057
0.585649
0.957117
0.268453
1.36322
-0.0608963
1.48409
-0.273568
0.964694
0.0425288
0.150884
-1.69372
0.274541
-1.51192
0.404353
-1.28024
0.543492
-1.26845
0.709689
-1.09567
0.867748
-0.715936
0.948137
-0.211747
0.943986
0.154029
0.929017
0.295364
0.888703
0.38926
0.854647
0.290532
0.928557
0.00305861
0.996738
-0.211243
0.961786
-0.174707
0.940031
-0.0990317
0.896499
-0.0184053
0.724153
0.0379139
0.468436
0.0950945
0.251836
0.262983
0.0118242
0.547321
-0.277369
0.886633
-0.633394
1.13667
-0.962365
1.27449
-1.21684
1.46697
-1.44381
1.6724
-1.71716
1.72892
-2.04711
1.78748
-2.25583
1.88954
-2.53925
1.85625
-2.9636
1.55972
-3.25275
1.14068
-3.35827
0.753916
-3.39899
0.423471
-3.41448
0.0409583
-3.35968
-0.285813
-3.26721
-0.453684
-3.18054
-0.820838
-3.03615
-1.11077
-2.83543
-1.23494
-2.57318
-1.48533
-2.27384
-1.84212
-1.92156
-2.17587
-1.54444
-2.42278
-1.17558
-2.62955
-0.87885
-2.59712
-0.574502
-2.4062
-0.243869
-2.03086
0.0836865
-1.50826
0.358651
-1.2262
0.610026
-0.957556
0.803718
-0.222879
0.94764
0.50398
1.04879
0.892541
1.0016
1.1144
1.01928
0.840006
1.03618
0.360694
0.994845
-0.179546
0.951133
-0.515937
0.935893
-0.41095
0.965397
-0.0916189
1.01555
0.254706
1.09887
0.295109
1.12216
0.442838
1.08912
0.667676
1.08199
0.570451
1.08586
0.242252
1.07794
0.17612
1.04831
0.410015
1.03634
0.460454
0.972119
0.156275
0.810121
-0.0993314
0.610164
-0.152365
0.407763
-0.240267
0.231489
-0.193461
0.13799
-0.168503
0.131204
-0.167862
0.15437
-0.163659
0.200023
-0.309438
0.306503
-0.295761
0.46306
-0.141008
0.550493
-0.159583
0.6618
-0.34286
0.707327
-0.440986
0.727069
-0.668001
0.848374
-0.780555
0.944429
-0.631098
0.948199
-0.410548
0.938341
-0.207644
0.988305
-0.0306304
1.07632
0.110769
1.14376
0.0591574
1.06452
0.120696
0.85978
0.374716
0.637536
0.635153
0.477201
0.880901
0.221046
1.21327
-0.102391
1.68665
-0.36475
1.74645
-0.571755
1.1717
0.104075
0.116791
-1.8055
0.212678
-1.60779
0.309553
-1.37709
0.423241
-1.38211
0.564126
-1.23652
0.70608
-0.857856
0.802391
-0.308022
0.837352
0.119105
0.83516
0.297596
0.830096
0.394365
0.837945
0.282721
0.86337
-0.0223297
0.923599
-0.271432
0.912521
-0.163583
0.792575
0.0209618
0.695109
0.0791043
0.501748
0.231316
0.164337
0.432546
-0.169197
0.596559
-0.468317
0.846481
-0.721652
1.14001
-1.07483
1.4899
-1.51631
1.71602
-1.80628
1.757
-2.07541
1.94158
-2.38977
2.04334
-2.69893
2.0967
-2.99916
2.18983
-3.33035
2.18751
-3.70687
1.93629
-3.93164
1.36552
-4.03089
0.853224
-4.03935
0.431983
-4.02909
0.0307608
-3.96521
-0.349638
-3.8456
-0.573251
-3.76445
-0.901939
-3.67157
-1.20363
-3.44512
-1.46137
-3.16767
-1.76275
-2.8948
-2.11497
-2.47016
-2.60049
-2.07596
-2.81697
-1.79681
-2.90869
-1.49483
-2.89909
-1.21005
-2.69097
-0.869546
-2.37136
-0.440732
-1.93708
-0.144495
-1.52243
0.0411202
-1.14317
0.284901
-0.466662
0.546131
0.242747
0.651307
0.787361
0.696641
1.06906
0.752819
0.783823
0.789981
0.323526
0.757209
-0.146781
0.679567
-0.438303
0.61194
-0.34333
0.630561
-0.110248
0.742648
0.142612
0.782222
0.255527
0.790471
0.434581
0.84473
0.613409
0.868817
0.546356
0.841621
0.269441
0.85557
0.162162
0.874603
0.390973
0.859434
0.475614
0.74932
0.26638
0.583556
0.0664229
0.336908
0.0942719
0.0286504
0.0679801
-0.171171
0.00635173
-0.300198
-0.0394824
-0.328751
-0.139317
-0.317731
-0.174688
-0.28884
-0.338338
-0.217578
-0.367031
-0.104536
-0.254058
0.0272501
-0.291379
0.15584
-0.47146
0.225675
-0.51083
0.236446
-0.678781
0.289579
-0.833697
0.324462
-0.66599
0.410234
-0.496329
0.471999
-0.269418
0.497842
-0.0564815
0.610604
-0.00200015
0.702229
-0.0324752
0.596376
0.226542
0.416336
0.554749
0.292445
0.759039
0.134617
1.03872
-0.154457
1.50234
-0.459359
1.99155
-0.639674
1.92676
-0.797207
1.32923
0.206229
0.0953184
-1.89581
0.147771
-1.66022
0.208237
-1.43753
0.282526
-1.45637
0.394936
-1.34891
0.521696
-0.984584
0.619982
-0.406274
0.668565
0.0705564
0.707963
0.258235
0.730622
0.371743
0.757792
0.255587
0.794756
-0.0592609
0.771533
-0.248173
0.747133
-0.139143
0.650052
0.118083
0.447627
0.281567
0.235346
0.443633
-0.0543637
0.722291
-0.421068
0.9633
-0.830247
1.2557
-1.26324
1.57305
-1.67356
1.90027
-2.07674
2.11925
-2.43428
2.1146
-2.7042
2.21155
-3.06113
2.40032
-3.43722
2.47286
-3.75548
2.50815
-4.07089
2.50298
-4.30114
2.16661
-4.46107
1.52551
-4.57055
0.962761
-4.58555
0.447038
-4.5899
0.035164
-4.51009
-0.429407
-4.3779
-0.705403
-4.28104
-0.99877
-4.14834
-1.33629
-3.98099
-1.6287
-3.71409
-2.02963
-3.40793
-2.42112
-3.09576
-2.91264
-2.6954
-3.21733
-2.31094
-3.29314
-2.05439
-3.15563
-1.80995
-2.9354
-1.44278
-2.73853
-1.03905
-2.3408
-0.683656
-1.87783
-0.425262
-1.40157
-0.175189
-0.716737
0.0523167
0.0152381
0.173187
0.666487
0.324775
0.917471
0.41923
0.689364
0.476207
0.266544
0.503926
-0.174505
0.366522
-0.300905
0.242638
-0.219453
0.231121
-0.0987371
0.301608
0.0721183
0.383606
0.173522
0.461749
0.35643
0.52101
0.554141
0.5554
0.511959
0.579176
0.245658
0.568601
0.17273
0.5639
0.395666
0.566734
0.472773
0.468253
0.364854
0.284004
0.250663
0.0480978
0.330169
-0.283479
0.399549
-0.590383
0.313249
-0.777027
0.147156
-0.850988
-0.0653621
-0.836772
-0.188911
-0.827933
-0.347185
-0.748809
-0.446163
-0.651654
-0.351221
-0.5577
-0.385342
-0.478857
-0.550312
-0.400339
-0.589356
-0.311928
-0.7672
-0.258774
-0.886859
-0.196326
-0.728446
-0.15256
-0.540103
-0.0835905
-0.338394
0.0434917
-0.18357
0.177606
-0.136121
0.153043
-0.00791868
0.0714018
0.308176
-0.00950748
0.635653
-0.152457
0.901984
-0.348989
1.23525
-0.577985
1.73133
-0.721827
2.13539
-0.862905
2.06784
-1.00623
1.47255
0.278619
0.0643042
-1.9551
0.089275
-1.68517
0.120609
-1.46885
0.152441
-1.48818
0.221001
-1.41744
0.329426
-1.09298
0.423388
-0.500205
0.492537
0.00143946
0.549336
0.20147
0.604367
0.316744
0.634179
0.225805
0.646446
-0.071499
0.595898
-0.197594
0.507506
-0.0507152
0.396238
0.229387
0.192414
0.485425
-0.0208855
0.656964
-0.342048
1.04349
-0.715536
1.33682
-1.0795
1.61969
-1.56629
2.05988
-2.12512
2.45915
-2.55685
2.55104
-2.90194
2.45974
-3.26736
2.57702
-3.69289
2.82592
-4.10502
2.88505
-4.40668
2.80988
-4.59031
2.68668
-4.74723
2.3236
-4.92034
1.69867
-4.98489
1.02736
-4.99254
0.45473
-5.03406
0.0767252
-4.99811
-0.465319
-4.86171
-0.841775
-4.77217
-1.08829
-4.7017
-1.40674
-4.47285
-1.85754
-4.20971
-2.29275
-3.92828
-2.70254
-3.61692
-3.22398
-3.34312
-3.49112
-2.98475
-3.6515
-2.59042
-3.54996
-2.24082
-3.285
-1.94961
-3.02973
-1.55398
-2.73643
-1.18934
-2.24247
-0.964495
-1.62641
-0.670456
-1.01078
-0.428409
-0.226812
-0.232407
0.470483
-0.0602584
0.745319
0.0615302
0.567571
0.117987
0.210083
0.101929
-0.158452
0.000216958
-0.199198
-0.163268
-0.0559733
-0.184992
-0.0770189
-0.15844
0.0455611
-0.0667788
0.0818548
0.0899109
0.199735
0.0991255
0.544921
0.130833
0.480246
0.227246
0.14924
0.187109
0.212861
0.150548
0.432221
0.154233
0.469083
0.0907861
0.428294
-0.0611662
0.402608
-0.38759
0.656586
-0.69826
0.710212
-0.969327
0.584311
-1.19167
0.369495
-1.27196
0.0149171
-1.34717
-0.113708
-1.37602
-0.318337
-1.3174
-0.504792
-1.24799
-0.420633
-1.16709
-0.466248
-1.16395
-0.553459
-1.08543
-0.667888
-0.972672
-0.879962
-0.957131
-0.902407
-0.89232
-0.793263
-0.776039
-0.65639
-0.593412
-0.521027
-0.444761
-0.332227
-0.408598
-0.172291
-0.442114
0.0255921
-0.466416
0.332473
-0.529324
0.698556
-0.637783
1.01044
-0.752478
1.34994
-0.873578
1.85243
-0.961487
2.22329
-1.12618
2.23253
-1.2305
1.57687
0.321362
0.0116346
-1.96173
0.0131599
-1.68668
0.00670197
-1.46237
-0.0141825
-1.46728
0.00970961
-1.44131
0.0927524
-1.176
0.196733
-0.604158
0.290743
-0.0925414
0.366754
0.125489
0.448153
0.235374
0.499024
0.17496
0.466688
-0.0391375
0.423019
-0.153896
0.364791
0.00754497
0.224705
0.369504
0.0209643
0.689196
-0.254094
0.93205
-0.591038
1.38046
-0.987849
1.73367
-1.46246
2.09434
-1.97435
2.57182
-2.47839
2.96324
-2.95455
3.02725
-3.41129
2.91655
-3.82347
2.98926
-4.26451
3.26701
-4.65775
3.27835
-4.94113
3.09332
-5.0635
2.80911
-5.13663
2.39677
-5.23706
1.79914
-5.29911
1.08945
-5.31288
0.468528
-5.29499
0.0588689
-5.32615
-0.434129
-5.32669
-0.841213
-5.20485
-1.21011
-4.99331
-1.61826
-4.83263
-2.01821
-4.62852
-2.49685
-4.40366
-2.92739
-4.19277
-3.43486
-3.83662
-3.84726
-3.50635
-3.98176
-3.1794
-3.87691
-2.84308
-3.62131
-2.4881
-3.38471
-2.07444
-3.15009
-1.70851
-2.6084
-1.40672
-1.9282
-1.14995
-1.26755
-0.867347
-0.509416
-0.656237
0.25937
-0.47786
0.566939
-0.315478
0.405187
-0.247651
0.142252
-0.337534
-0.0685736
-0.45438
-0.0823572
-0.539898
0.0295406
-0.668559
0.0516369
-0.677303
0.0543005
-0.560416
-0.0350379
-0.477104
0.116418
-0.481938
0.54975
-0.407895
0.406198
-0.341657
0.0829976
-0.383745
0.254944
-0.395645
0.444116
-0.359361
0.432794
-0.417889
0.486817
-0.662685
0.647399
-0.943646
0.937542
-1.21497
0.981533
-1.45887
0.828204
-1.59475
0.505371
-1.76688
0.187044
-1.8763
-0.00429041
-1.91777
-0.276876
-1.89146
-0.531106
-1.85871
-0.453392
-1.92536
-0.3996
-1.876
-0.602822
-1.7888
-0.755101
-1.72763
-0.941136
-1.63494
-0.995103
-1.48528
-0.942922
-1.29879
-0.842884
-1.07993
-0.73989
-0.908418
-0.503747
-0.828748
-0.251966
-0.858422
0.055261
-0.948047
0.422094
-0.983229
0.733734
-1.08654
1.11375
-1.15511
1.41851
-1.18548
1.8828
-1.27359
2.3114
-1.34285
2.30179
-1.34192
1.57594
0.341306
-0.0404003
-1.91632
-0.0740407
-1.65302
-0.123209
-1.41319
-0.194434
-1.39603
-0.216959
-1.41876
-0.164789
-1.22814
-0.056887
-0.712034
0.059083
-0.208485
0.160684
0.0239135
0.243123
0.152959
0.289989
0.128116
0.251166
-0.00029208
0.197549
-0.100254
0.125963
0.0791599
-0.00816039
0.503655
-0.181728
0.862789
-0.427
1.17735
-0.782691
1.73618
-1.21473
2.16574
-1.68355
2.56318
-2.22066
3.10898
-2.75144
3.49409
-3.28169
3.55755
-3.80582
3.44073
-4.26232
3.44583
-4.71899
3.72374
-5.0579
3.61732
-5.28361
3.31908
-5.43912
2.96466
-5.45557
2.41326
-5.48946
1.83307
-5.51044
1.11046
-5.56921
0.527322
-5.59322
0.0829068
-5.545
-0.482334
-5.54488
-0.84131
-5.48658
-1.2684
-5.31609
-1.78874
-5.13537
-2.19891
-4.98104
-2.65117
-4.80931
-3.09911
-4.55074
-3.69343
-4.29211
-4.10589
-4.00524
-4.26863
-3.67961
-4.20253
-3.36393
-3.93699
-3.00294
-3.74571
-2.64403
-3.50899
-2.27956
-2.97287
-1.87885
-2.32891
-1.55743
-1.58898
-1.32121
-0.745632
-1.10402
0.0421759
-0.9282
0.391117
-0.832865
0.309849
-0.806012
0.115396
-0.86828
-0.00630911
-0.988655
0.0380137
-1.06833
0.109213
-1.19636
0.17966
-1.24822
0.106159
-1.25317
-0.0300943
-1.16239
0.0256329
-0.995538
0.382897
-0.969891
0.380548
-0.996045
0.109148
-0.927814
0.18671
-0.891876
0.408175
-0.99094
0.531854
-1.07566
0.571531
-1.2227
0.794434
-1.51773
1.23257
-1.77902
1.24282
-2.00527
1.05445
-2.24687
0.74697
-2.4235
0.363672
-2.47736
0.0495612
-2.45368
-0.300553
-2.50881
-0.475988
-2.50374
-0.458459
-2.48399
-0.419362
-2.48905
-0.597766
-2.41543
-0.828721
-2.29532
-1.06126
-2.14591
-1.14452
-1.88627
-1.20257
-1.58717
-1.14198
-1.47184
-0.855227
-1.34826
-0.62733
-1.28888
-0.311351
-1.37092
0.137297
-1.46969
0.520864
-1.56881
0.832855
-1.56077
1.1057
-1.54179
1.39952
-1.4906
1.83161
-1.44555
2.26636
-1.51493
2.37117
-1.45545
1.51647
0.276175
-0.101416
-1.8099
-0.175576
-1.57885
-0.25789
-1.33086
-0.364137
-1.28977
-0.43633
-1.34655
-0.422928
-1.24152
-0.302074
-0.832865
-0.160733
-0.349804
-0.0443641
-0.0924342
0.0344933
0.0741213
0.0475082
0.115119
0.0105131
0.0367225
-0.0657446
-0.0239734
-0.13332
0.146761
-0.233471
0.603832
-0.424387
1.05373
-0.674075
1.42706
-0.984899
2.04703
-1.38776
2.56863
-1.87396
3.04942
-2.38898
3.62404
-2.91405
4.01921
-3.50837
4.15193
-4.11817
4.05059
-4.60221
3.92991
-4.97762
4.09921
-5.3027
3.94244
-5.52613
3.54255
-5.66845
3.10701
-5.70253
2.44736
-5.73708
1.86764
-5.7385
1.1119
-5.72545
0.514293
-5.78424
0.141713
-5.73619
-0.530367
-5.67954
-0.89795
-5.64332
-1.3046
-5.48938
-1.94268
-5.29453
-2.39375
-5.22119
-2.7245
-5.09863
-3.22167
-4.93828
-3.85377
-4.74456
-4.2996
-4.47309
-4.5401
-4.17492
-4.5007
-3.8625
-4.2494
-3.48688
-4.12132
-3.06853
-3.92734
-2.6824
-3.359
-2.31023
-2.70108
-2.00863
-1.89058
-1.79535
-0.958916
-1.58944
-0.163727
-1.41758
0.219252
-1.40173
0.29399
-1.41334
0.127011
-1.45016
0.0305038
-1.59089
0.178739
-1.71686
0.235179
-1.75231
0.215107
-1.80607
0.15992
-1.91087
0.0747023
-1.92863
0.0433876
-1.74526
0.199522
-1.6198
0.25509
-1.64144
0.130789
-1.55102
0.0962793
-1.47462
0.331781
-1.55253
0.609758
-1.76633
0.785331
-1.98268
1.01078
-2.09157
1.34145
-2.32306
1.4743
-2.59246
1.32385
-2.81394
0.96845
-2.92114
0.470865
-2.98194
0.110366
-3.1182
-0.164304
-3.24158
-0.352602
-3.19232
-0.507731
-3.07768
-0.533996
-3.09616
-0.579293
-2.98289
-0.94199
-2.73421
-1.30994
-2.49929
-1.37944
-2.26987
-1.43199
-2.10147
-1.31038
-1.90144
-1.05526
-1.78494
-0.743836
-1.82916
-0.267128
-1.8656
0.173729
-1.9054
0.560665
-1.95125
0.8787
-1.96327
1.11772
-1.88676
1.32301
-1.73484
1.67969
-1.63857
2.17009
-1.59445
2.32704
-1.40849
1.33051
0.132892
-0.15121
-1.65368
-0.273632
-1.45642
-0.393054
-1.21143
-0.530399
-1.15241
-0.637474
-1.23945
-0.650864
-1.22811
-0.534368
-0.949343
-0.391288
-0.492866
-0.297764
-0.18594
-0.221087
-0.00253981
-0.178291
0.0723388
-0.232371
0.0908199
-0.336969
0.0806457
-0.422104
0.231918
-0.506014
0.687765
-0.673715
1.22145
-0.964325
1.7177
-1.27475
2.35749
-1.64566
2.93956
-2.13488
3.53868
-2.63496
4.12417
-3.11927
4.50357
-3.68074
4.71344
-4.31194
4.68182
-4.83693
4.45494
-5.1847
4.44701
-5.39106
4.14883
-5.52437
3.67589
-5.58578
3.16844
-5.69518
2.55679
-5.74155
1.91403
-5.722
1.09237
-5.70182
0.494127
-5.64359
0.0834951
-5.73573
-0.438222
-5.73939
-0.894272
-5.64742
-1.39657
-5.56038
-2.02972
-5.51684
-2.43728
-5.46744
-2.7739
-5.35163
-3.33749
-5.29209
-3.9133
-5.1162
-4.47549
-4.88015
-4.77615
-4.70396
-4.67689
-4.35088
-4.60248
-3.9461
-4.5261
-3.64483
-4.22861
-3.26049
-3.74334
-2.88801
-3.07356
-2.63729
-2.1413
-2.40158
-1.19463
-2.11144
-0.453864
-1.95205
0.05986
-1.92379
0.265723
-1.99346
0.196679
-2.20694
0.243988
-2.32561
0.2974
-2.39474
0.304308
-2.53897
0.359338
-2.63327
0.25422
-2.69933
0.140756
-2.71364
0.0576934
-2.50496
-0.00916087
-2.30899
0.0591184
-2.29674
0.118535
-2.2057
0.00523837
-2.11757
0.243651
-2.22847
0.72066
-2.47427
1.03113
-2.71129
1.2478
-2.8377
1.46786
-3.00402
1.64062
-3.15429
1.47411
-3.3096
1.12376
-3.44609
0.607353
-3.53403
0.198312
-3.67272
-0.0256211
-3.7028
-0.322519
-3.72021
-0.490328
-3.73018
-0.524029
-3.64863
-0.660846
-3.55802
-1.03259
-3.28636
-1.58161
-2.92216
-1.74363
-2.70825
-1.64591
-2.52259
-1.49604
-2.34023
-1.23762
-2.26197
-0.822102
-2.18099
-0.348109
-2.15271
0.145446
-2.22364
0.631599
-2.25597
0.911026
-2.23472
1.09647
-2.15527
1.24356
-2.0196
1.54402
-1.80176
1.95225
-1.54971
2.07499
-1.20987
0.990667
-0.0926011
-0.21468
-1.434
-0.400021
-1.27107
-0.553748
-1.0577
-0.702605
-1.00354
-0.824419
-1.11763
-0.855371
-1.19715
-0.767531
-1.03717
-0.663343
-0.597041