/*--------------------------------*- C++ -*----------------------------------*\
| =========                 |                                                 |
| \\      /  F ield         | foam-extend: Open Source CFD                    |
|  \\    /   O peration     | Version:     5.0                                |
|   \\  /    A nd           | Web:         http://www.foam-extend.org         |
|    \\/     M anipulation  |                                                 |
\*---------------------------------------------------------------------------*/
FoamFile
{
    version     2.0;
    format      ascii;
    class       volVectorField;
    location    "0.06";
    object      U;
}
// * * * * * * * * * * * * * * * * * * * * * * * * * * * * * * * * * * * * * //

dimensions      [0 1 -1 0 0 0 0];

internalField   nonuniform List<vector> 
4000
(
(4.46098 0.315681 0)
(8.43658 -0.903952 0)
(20.251 -1.02125 0)
(29.7824 -1.65064 0)
(41.3384 -1.28932 0)
(47.4175 -0.17956 0)
(46.9082 0.39084 0)
(43.8334 0.575538 0)
(38.2232 -0.228912 0)
(38.5526 -0.0904379 0)
(31.7409 0.715533 0)
(32.1491 -0.0639659 0)
(31.2359 0.149244 0)
(26.0361 0.251483 0)
(33.7246 -0.458718 0)
(31.4983 0.187887 0)
(30.9016 1.59548 0)
(17.3956 0.0836109 0)
(33.8088 -0.614252 0)
(31.8104 -0.87634 0)
(53.946 -1.70537 0)
(48.8819 -2.39426 0)
(61.7127 0.573305 0)
(36.8741 3.43361 0)
(37.3116 0.720706 0)
(14.5226 1.62346 0)
(-6.95124 4.65354 0)
(-44.5217 4.08458 0)
(-34.0999 0.0674855 0)
(-53.7489 0.512527 0)
(-81.0652 2.51241 0)
(-76.9392 2.01923 0)
(-85.5041 0.432326 0)
(-89.9287 -0.174194 0)
(-80.9061 -0.329237 0)
(-76.3194 -1.06767 0)
(-61.3818 -2.0108 0)
(-48.3444 -2.23254 0)
(-18.1041 -2.67921 0)
(-1.22638 -3.15875 0)
(15.9116 -2.62424 0)
(36.8454 -2.89761 0)
(61.4577 -3.11777 0)
(83.5385 -1.30864 0)
(95.0935 -0.744952 0)
(101.478 -1.79878 0)
(124.463 -3.69319 0)
(156.162 -3.66546 0)
(170.8 -1.42748 0)
(176.763 1.32804 0)
(167.705 2.38972 0)
(146.66 3.88809 0)
(112.355 2.96543 0)
(96.7714 1.53133 0)
(79.1676 1.37263 0)
(73.8856 0.801246 0)
(67.0049 0.781479 0)
(67.9508 -0.300667 0)
(77.0191 -0.824369 0)
(77.7099 -0.017089 0)
(85.509 0.618458 0)
(77.2733 1.04372 0)
(64.618 0.703079 0)
(62.0046 1.15726 0)
(53.9073 0.317153 0)
(47.2147 -0.214094 0)
(50.9482 0.93652 0)
(38.2675 1.44964 0)
(29.343 1.50409 0)
(19.9334 0.86309 0)
(21.7244 -0.850687 0)
(30.4802 -1.42804 0)
(42.3623 -1.7142 0)
(60.9756 -2.54009 0)
(80.604 -2.15094 0)
(87.8227 -0.446605 0)
(87.0329 0.89421 0)
(79.3882 0.647144 0)
(78.4186 0.472053 0)
(79.0266 0.657439 0)
(68.4828 0.203209 0)
(73.0291 -0.808205 0)
(76.1981 -0.721642 0)
(80.8064 -1.00899 0)
(94.0451 -0.674418 0)
(100.052 -0.194652 0)
(96.1623 -0.592125 0)
(107.617 0.322053 0)
(98.3729 0.505994 0)
(102.055 0.0808225 0)
(93.5378 -0.483374 0)
(106.939 -1.14182 0)
(109.11 -0.96112 0)
(120.013 -0.105873 0)
(116.887 0.40109 0)
(115.868 -1.44692 0)
(129.183 -1.49511 0)
(134.272 -0.46788 0)
(135.129 0.11845 0)
(144.717 -1.31752 0)
(22.1369 -3.52357 0)
(42.0741 -5.61557 0)
(70.4056 -4.47723 0)
(83.2429 -5.53459 0)
(110.64 -4.28722 0)
(126.235 -1.31577 0)
(128.731 1.11984 0)
(116.264 1.94966 0)
(114.179 0.869804 0)
(102.059 2.06963 0)
(91.5535 1.88315 0)
(100.157 -0.0591535 0)
(92.7098 1.07771 0)
(78.5681 -0.164 0)
(97.4084 -1.07585 0)
(82.7628 0.225199 0)
(113.022 1.5448 0)
(107.895 -1.1071 0)
(103.014 -4.22323 0)
(144.434 -5.04858 0)
(150.76 -2.51828 0)
(149.539 -0.0277432 0)
(114.506 3.20079 0)
(116.599 6.01168 0)
(104.048 5.41874 0)
(44.335 9.55275 0)
(36.1276 11.3589 0)
(-11.8828 6.35662 0)
(-10.2978 4.08866 0)
(-56.5916 9.41494 0)
(-106.089 7.37312 0)
(-98.8304 1.98491 0)
(-101.231 1.19584 0)
(-120.19 -0.67897 0)
(-97.8692 -3.16713 0)
(-81.581 -4.16192 0)
(-59.5895 -7.4024 0)
(-41.063 -9.92513 0)
(9.37337 -9.0797 0)
(22.508 -7.98311 0)
(54.7349 -8.21508 0)
(92.6221 -10.0989 0)
(134.916 -11.5148 0)
(179.415 -6.52046 0)
(210.206 -4.38757 0)
(234.749 -6.71948 0)
(280.299 -12.712 0)
(341.581 -11.8569 0)
(355.043 -4.54041 0)
(369.112 3.19658 0)
(349.694 8.18439 0)
(317.93 11.677 0)
(252.722 11.2044 0)
(228.997 8.74757 0)
(190.489 5.54834 0)
(178.133 2.16678 0)
(171.742 1.34386 0)
(177.382 -1.66782 0)
(185.92 -3.28999 0)
(204.691 -2.76301 0)
(207.705 0.808345 0)
(198.756 5.10396 0)
(161.998 4.48321 0)
(159.527 3.15666 0)
(135.558 3.31674 0)
(111.973 1.48874 0)
(128.298 1.92165 0)
(107.137 3.88231 0)
(89.7242 4.76919 0)
(76.4774 2.83016 0)
(72.3235 -3.15403 0)
(95.9443 -5.68092 0)
(122.008 -6.59746 0)
(161.486 -9.76533 0)
(200.199 -7.16207 0)
(206.201 -0.612516 0)
(208.383 2.18178 0)
(197.303 1.73073 0)
(198.524 0.195512 0)
(202.371 1.41119 0)
(182.551 1.84282 0)
(177.293 -0.575953 0)
(189.264 -2.34046 0)
(192.397 -4.20982 0)
(220.509 -3.70704 0)
(235.926 -1.44041 0)
(228.378 -1.99979 0)
(254.612 -0.129436 0)
(245.186 1.93604 0)
(237.835 0.85741 0)
(222.138 -1.1431 0)
(250.101 -3.14574 0)
(248.042 -3.83623 0)
(269.802 -1.95331 0)
(266.245 1.24761 0)
(260.263 -2.17369 0)
(279.705 -4.07477 0)
(269.283 -3.18099 0)
(261.489 0.347821 0)
(279.583 -2.53129 0)
(33.6307 -12.8944 0)
(67.4418 -14.3263 0)
(108.59 -10.971 0)
(135.221 -11.2229 0)
(147.314 -9.77297 0)
(171.518 -4.26143 0)
(181.87 2.13784 0)
(175.995 4.31728 0)
(167.16 3.48389 0)
(138.711 3.30452 0)
(152.829 2.37841 0)
(148.324 1.17768 0)
(139.712 2.47646 0)
(138.022 -0.0512227 0)
(139.788 -0.613233 0)
(126.828 -2.35337 0)
(154.361 -2.94606 0)
(190.118 -3.43203 0)
(184.761 -5.56936 0)
(180.903 -6.94563 0)
(177.22 -4.14667 0)
(208.16 1.41914 0)
(165.664 6.19021 0)
(174.499 8.9686 0)
(158.642 14.0506 0)
(104.562 18.6963 0)
(61.8237 19.2699 0)
(62.2079 11.9412 0)
(21.9823 11.7848 0)
(-14.8916 18.1779 0)
(-52.18 12.5171 0)
(-37.7917 4.04545 0)
(-75.6313 2.23129 0)
(-54.2834 -1.46916 0)
(-66.2802 -6.50436 0)
(-37.2187 -9.5356 0)
(-18.6547 -13.6208 0)
(12.292 -17.7381 0)
(25.6153 -15.8284 0)
(61.7698 -13.7001 0)
(68.1596 -16.3916 0)
(113.612 -21.3902 0)
(147.595 -23.7517 0)
(201.945 -17.4481 0)
(256.834 -14.9842 0)
(302.124 -18.6549 0)
(352.293 -27.1567 0)
(402.521 -21.9043 0)
(404.967 -7.74922 0)
(420.458 3.74732 0)
(417.873 13.1004 0)
(381.763 23.4043 0)
(323.488 23.0174 0)
(283.56 17.3261 0)
(269.031 12.2095 0)
(234.392 4.57913 0)
(243.922 -0.145979 0)
(262.531 -4.67873 0)
(282.116 -6.26069 0)
(270.233 -4.10016 0)
(269.757 1.90488 0)
(262.852 10.1018 0)
(228.958 9.17621 0)
(227.288 7.18102 0)
(196.251 8.74834 0)
(166.757 3.26966 0)
(187.489 2.98321 0)
(171.522 7.784 0)
(154.211 8.97899 0)
(142.036 5.39928 0)
(148.64 -5.89392 0)
(158.392 -12.1714 0)
(195.043 -15.412 0)
(238.58 -20.0081 0)
(275.721 -14.5606 0)
(283.772 -1.5813 0)
(286.528 4.76276 0)
(268.833 2.44283 0)
(281.787 -0.843077 0)
(284.743 3.74441 0)
(265.094 5.10106 0)
(257.889 -0.14836 0)
(252.522 -5.10864 0)
(282.5 -8.92712 0)
(284.651 -7.9139 0)
(320.717 -4.65855 0)
(319.498 -5.86914 0)
(346.594 -2.48104 0)
(350.51 3.18793 0)
(335.771 3.64492 0)
(315.864 -1.07936 0)
(327.23 -6.10663 0)
(341.218 -6.7353 0)
(343.793 -3.12276 0)
(346.382 2.07622 0)
(346.622 -0.965352 0)
(329.616 -4.59535 0)
(327.608 -1.90594 0)
(298.287 3.5195 0)
(291.149 -2.55326 0)
(37.8619 -25.7494 0)
(81.0912 -24.9696 0)
(119.715 -18.962 0)
(141.545 -17.4777 0)
(175.871 -14.4175 0)
(183.786 -8.37558 0)
(199.724 1.412 0)
(196.726 6.20738 0)
(195.181 7.02583 0)
(167.611 4.9181 0)
(180.774 2.93806 0)
(167.002 3.57127 0)
(153.712 2.27759 0)
(175.339 -0.0706007 0)
(169.049 -0.351302 0)
(167.368 -5.90236 0)
(189.662 -11.3857 0)
(232.31 -7.07776 0)
(225.369 -3.1893 0)
(217.552 -6.27482 0)
(203.787 -7.60274 0)
(235.019 1.3596 0)
(197.506 9.182 0)
(208.84 14.6733 0)
(147.948 26.2059 0)
(82.5247 28.1916 0)
(82.1485 23.2837 0)
(51.2305 20.707 0)
(-0.860537 22.751 0)
(-47.4378 23.7129 0)
(-48.3232 14.3606 0)
(-36.7609 7.32179 0)
(-61.8874 4.57954 0)
(-81.9611 -2.51926 0)
(-61.9592 -9.21312 0)
(-58.5907 -13.5695 0)
(-29.9616 -19.3887 0)
(-17.8947 -22.7707 0)
(12.8514 -21.8086 0)
(36.0988 -18.929 0)
(44.3763 -22.8214 0)
(94.7763 -31.2864 0)
(116.035 -34.8719 0)
(174.857 -32.2256 0)
(256.939 -27.6832 0)
(322.49 -30.1315 0)
(369.63 -36.7009 0)
(388.306 -29.2505 0)
(410.928 -11.3307 0)
(407.585 2.77981 0)
(430.526 15.8458 0)
(414.797 33.5699 0)
(363.601 34.3276 0)
(343.038 24.4964 0)
(313.98 19.543 0)
(271.764 7.50659 0)
(284.716 -3.82654 0)
(304.076 -9.3781 0)
(315.82 -9.04374 0)
(330.726 -3.59143 0)
(317.45 6.06484 0)
(282.839 14.9904 0)
(287.832 12.2726 0)
(271.323 12.9095 0)
(235.976 16.1501 0)
(210.043 4.07802 0)
(225.874 2.07395 0)
(217.434 10.9054 0)
(198.289 12.3876 0)
(194.626 5.20595 0)
(212.511 -9.45276 0)
(215.645 -18.1179 0)
(252.588 -24.8154 0)
(291.402 -29.6732 0)
(306.509 -20.6472 0)
(318.243 -2.7737 0)
(323.911 6.58148 0)
(317.135 3.09383 0)
(318.989 -2.07824 0)
(319.805 4.118 0)
(318.465 9.08188 0)
(294.43 1.68144 0)
(308.167 -9.8989 0)
(335.001 -13.5323 0)
(346.48 -10.9399 0)
(354.593 -9.89605 0)
(383.875 -10.1951 0)
(391.092 -3.76665 0)
(391.053 5.40938 0)
(383.339 5.8166 0)
(379.485 0.332943 0)
(369.188 -7.65555 0)
(379.872 -8.12568 0)
(360.88 -3.55232 0)
(379.267 0.656511 0)
(371.427 2.2257 0)
(339.527 1.56543 0)
(291.902 4.72543 0)
(243.088 8.63685 0)
(268.647 -4.59536 0)
(35.2927 -39.55 0)
(78.291 -36.1369 0)
(121.908 -26.7731 0)
(149.237 -25.4836 0)
(180.609 -20.2718 0)
(193.991 -11.5092 0)
(205.575 -0.448048 0)
(212.207 7.03359 0)
(205.548 9.46185 0)
(183.276 6.80915 0)
(185.953 5.02398 0)
(166.244 5.24973 0)
(182.361 0.508084 0)
(175.694 -1.79836 0)
(185.086 -1.70158 0)
(210.913 -7.19383 0)
(199.744 -16.2992 0)
(234.25 -12.0193 0)
(216.44 -1.74467 0)
(242.571 -4.0427 0)
(224.152 -6.87467 0)
(206.886 3.0979 0)
(175.666 12.9183 0)
(173.854 23.9549 0)
(118.095 39.8674 0)
(49.5623 36.3001 0)
(35.15 29.4399 0)
(5.98711 32.3945 0)
(-48.6071 34.2987 0)
(-101.72 28.2723 0)
(-97.2279 14.2191 0)
(-105.838 10.7898 0)
(-125.228 8.1227 0)
(-133.684 -3.72867 0)
(-109.009 -11.1288 0)
(-113.371 -16.2398 0)
(-111.003 -24.11 0)
(-89.7299 -27.7635 0)
(-75.6403 -25.3924 0)
(-61.099 -24.5975 0)
(-17.7387 -31.1056 0)
(23.9747 -40.4482 0)
(60.4401 -46.4563 0)
(120.486 -49.1302 0)
(204.296 -51.5641 0)
(292.051 -48.1552 0)
(341.851 -43.3441 0)
(351.826 -32.2385 0)
(354.581 -13.9616 0)
(394.631 0.993353 0)
(402.747 16.596 0)
(392.645 38.4298 0)
(388.859 42.6463 0)
(334.646 31.9248 0)
(320.188 26.2333 0)
(298.927 10.8642 0)
(288.187 -6.33288 0)
(306.904 -15.8381 0)
(336.73 -12.6282 0)
(343.104 -2.34831 0)
(326.607 11.7298 0)
(312.473 18.4775 0)
(314.341 14.5647 0)
(287.369 20.3262 0)
(255.759 22.7363 0)
(240.122 6.73104 0)
(241.554 1.53776 0)
(248.326 12.524 0)
(224.187 15.4933 0)
(224.218 5.22412 0)
(246.6 -13.2635 0)
(245.326 -23.2649 0)
(271.242 -31.8988 0)
(294.859 -34.5092 0)
(293.204 -23.4207 0)
(297.774 -4.33019 0)
(316.472 6.88571 0)
(316.594 4.41015 0)
(309.756 -2.78644 0)
(322.696 2.84781 0)
(328.403 11.2546 0)
(311.257 2.6472 0)
(333.979 -14.8853 0)
(344.73 -17.7797 0)
(354.741 -13.8723 0)
(382.726 -14.4852 0)
(387.6 -14.7241 0)
(410.545 -5.19436 0)
(404.615 6.72409 0)
(401.291 6.95 0)
(386.801 1.75173 0)
(394.119 -6.57311 0)
(374.967 -6.33671 0)
(374.805 -2.33341 0)
(355.862 1.85965 0)
(350.103 8.40337 0)
(303.825 12.986 0)
(237.149 18.4781 0)
(171.999 14.7182 0)
(191.439 -5.9295 0)
(30.5827 -52.9885 0)
(69.3928 -47.0099 0)
(114.193 -35.8892 0)
(146.854 -33.8346 0)
(183.678 -25.5889 0)
(191.036 -15.22 0)
(205.947 -2.16952 0)
(211.857 7.65871 0)
(206.159 11.5146 0)
(196.315 9.46521 0)
(181.011 8.28876 0)
(181.738 5.57369 0)
(181.24 -1.77064 0)
(203.139 -3.33169 0)
(211.664 -4.4074 0)
(203.983 -8.86076 0)
(212.731 -17.4123 0)
(198.78 -13.6155 0)
(206.706 -4.06363 0)
(225.066 -2.83793 0)
(186.079 0.305344 0)
(141.569 9.11734 0)
(134.746 19.1991 0)
(66.5002 34.7588 0)
(43.3208 50.9264 0)
(11.1783 44.3415 0)
(-18.5343 38.1251 0)
(-69.1823 44.2987 0)
(-121.86 45.9274 0)
(-181.647 34.3694 0)
(-181.707 18.8122 0)
(-229.89 16.0274 0)
(-219.074 9.70048 0)
(-231.592 -3.65172 0)
(-227.476 -10.6194 0)
(-247.298 -15.9522 0)
(-222.162 -27.3985 0)
(-222.049 -31.1228 0)
(-195.485 -30.437 0)
(-164.762 -34.0262 0)
(-119.25 -42.5281 0)
(-59.6619 -51.0511 0)
(-19.0871 -58.3556 0)
(43.2025 -67.8729 0)
(136.533 -71.509 0)
(212.71 -62.6999 0)
(256.057 -52.2544 0)
(297.78 -36.4397 0)
(293.063 -20.0671 0)
(350.654 -4.63205 0)
(354.667 13.3664 0)
(378.589 36.8648 0)
(373.766 48.9452 0)
(327.393 39.7674 0)
(315.335 31.3451 0)
(295.007 14.79 0)
(276.185 -8.30953 0)
(315.3 -20.4702 0)
(322.768 -16.3768 0)
(339.226 -1.68739 0)
(318.353 15.4822 0)
(323.592 19.3973 0)
(314.233 17.7676 0)
(288.7 26.9971 0)
(269.558 26.7136 0)
(272.474 8.01485 0)
(260.099 1.98158 0)
(254.734 14.3666 0)
(248.802 17.4892 0)
(238.106 3.27521 0)
(259.402 -16.0989 0)
(258.141 -26.1859 0)
(265.083 -35.0811 0)
(261.747 -34.6364 0)
(242.949 -22.7206 0)
(234.753 -8.37277 0)
(264.159 1.6188 0)
(287.738 2.82099 0)
(292.984 -1.42978 0)
(271.659 0.967341 0)
(301.76 8.38634 0)
(314.813 2.29227 0)
(316.261 -17.6022 0)
(316.489 -21.7054 0)
(356.899 -18.176 0)
(366.247 -17.9902 0)
(377.249 -18.1449 0)
(377.929 -5.96603 0)
(402.907 7.22831 0)
(384.077 9.23169 0)
(370.847 2.62198 0)
(382.958 -4.27194 0)
(360.763 -2.90726 0)
(344.293 -0.0833829 0)
(335.708 7.05307 0)
(284.819 19.2405 0)
(240.602 28.6162 0)
(157.294 32.8398 0)
(105.628 24.9469 0)
(89.6809 -3.71888 0)
(23.842 -64.4728 0)
(58.5715 -57.2829 0)
(100.301 -44.7802 0)
(130.467 -42.8785 0)
(173.905 -32.2615 0)
(199.785 -18.0251 0)
(205.017 -4.39795 0)
(214.517 7.68703 0)
(213.653 12.739 0)
(198.37 12.62 0)
(179.897 10.6415 0)
(187.187 5.03699 0)
(179.929 -4.51765 0)
(199.86 -6.87818 0)
(206.93 -5.22065 0)
(211.444 -6.5616 0)
(199.468 -15.1179 0)
(175.696 -15.8017 0)
(203.004 -5.1154 0)
(184.063 3.68587 0)
(130.635 10.8137 0)
(76.4692 16.6014 0)
(57.2248 28.7246 0)
(-7.05959 44.3912 0)
(-7.33877 58.0098 0)
(-58.6444 56.2313 0)
(-135.399 51.6499 0)
(-178.567 60.1793 0)
(-254.64 59.2119 0)
(-281.811 39.7018 0)
(-307.131 26.4683 0)
(-340.786 21.9279 0)
(-375.014 10.1783 0)
(-371.845 -2.92505 0)
(-381.107 -9.20787 0)
(-372.43 -15.4104 0)
(-381.199 -30.4426 0)
(-359.156 -36.9597 0)
(-316.497 -37.9524 0)
(-287.434 -44.2831 0)
(-236.3 -56.243 0)
(-182.785 -66.9451 0)
(-110.787 -74.3453 0)
(-37.7959 -85.0666 0)
(33.2728 -90.5855 0)
(94.5594 -82.4187 0)
(171.171 -64.8271 0)
(210.382 -42.4663 0)
(214.907 -28.5324 0)
(288.414 -14.023 0)
(326.12 8.93881 0)
(332.187 36.6783 0)
(319.327 52.8966 0)
(323.28 46.9714 0)
(283.778 36.0806 0)
(284.587 18.2847 0)
(262.001 -8.40904 0)
(296.924 -26.3861 0)
(301.727 -18.9742 0)
(311.397 -1.05625 0)
(293.638 16.7521 0)
(310.634 20.2465 0)
(295.622 21.8656 0)
(281.218 30.3627 0)
(284.343 27.7435 0)
(281.265 10.4717 0)
(261.097 5.06959 0)
(262.448 15.5762 0)
(240.087 19.8442 0)
(241.165 3.39169 0)
(252.462 -17.7103 0)
(237.867 -25.6258 0)
(229.057 -32.6567 0)
(211.289 -29.7494 0)
(177.8 -20.2023 0)
(174.066 -8.3764 0)
(177.565 -4.01658 0)
(217.686 -3.27303 0)
(243.406 -1.52884 0)
(222.717 1.77266 0)
(226.905 4.0492 0)
(262.046 -2.42351 0)
(285.957 -18.4402 0)
(268.01 -26.5866 0)
(315.561 -25.0319 0)
(334.111 -21.3339 0)
(344.908 -18.7519 0)
(325.667 -8.17387 0)
(362.766 5.88964 0)
(342.076 10.6961 0)
(355.368 4.41089 0)
(345.518 -1.41877 0)
(317.398 0.899464 0)
(312.941 4.41427 0)
(270.329 18.2226 0)
(213.196 31.1654 0)
(183.095 44.4107 0)
(79.8894 49.4385 0)
(28.7152 32.9171 0)
(31.0819 -3.54556 0)
(15.1477 -73.6785 0)
(49.6953 -65.8155 0)
(85.9463 -54.1229 0)
(111.017 -52.6657 0)
(151.527 -41.7381 0)
(186.8 -23.8694 0)
(207.325 -5.25562 0)
(201.548 7.52751 0)
(208.795 13.9381 0)
(191.895 16.2912 0)
(183.066 12.6897 0)
(190.091 4.554 0)
(195.474 -6.97436 0)
(194.909 -10.0262 0)
(211.234 -6.25853 0)
(193.848 -5.02062 0)
(193.005 -9.10401 0)
(158.115 -12.7188 0)
(122.309 -2.46677 0)
(103.613 11.828 0)
(78.0223 23.9671 0)
(8.55702 29.4997 0)
(-68.0809 40.4389 0)
(-91.726 53.952 0)
(-160.635 66.3903 0)
(-185.025 68.6045 0)
(-226.315 66.0406 0)
(-286.029 75.0493 0)
(-362.31 71.1398 0)
(-396.577 49.1015 0)
(-467.434 36.7687 0)
(-483.256 29.5124 0)
(-509.488 15.3227 0)
(-542.628 -0.249636 0)
(-535.229 -9.88535 0)
(-520.801 -15.7108 0)
(-510.863 -34.3663 0)
(-490.905 -44.9084 0)
(-447.917 -46.6545 0)
(-416.597 -55.0269 0)
(-363.6 -69.9522 0)
(-296.258 -82.623 0)
(-236.045 -92.7876 0)
(-142.157 -103.762 0)
(-76.8858 -106.998 0)
(-12.2913 -97.4357 0)
(38.292 -77.7523 0)
(96.8174 -51.8919 0)
(125.704 -39.9893 0)
(207.251 -27.9573 0)
(257.421 2.36086 0)
(249.019 35.3008 0)
(286.022 52.3844 0)
(283.109 51.0879 0)
(245.785 40.9444 0)
(243.325 19.6281 0)
(250.818 -11.5514 0)
(248.55 -29.6889 0)
(238.489 -21.2944 0)
(263.997 -2.42555 0)
(249.455 16.2902 0)
(276.781 19.5319 0)
(259.379 23.5192 0)
(270.386 31.5507 0)
(251.691 27.5478 0)
(262.466 11.9124 0)
(245.405 7.549 0)
(247.849 18.1043 0)
(226.231 21.6314 0)
(233.158 3.6045 0)
(223.196 -16.2491 0)
(200.087 -21.7442 0)
(169.042 -27.2101 0)
(138.669 -23.0096 0)
(107.859 -14.9492 0)
(97.3831 -8.82051 0)
(116.408 -7.07224 0)
(112.786 -10.9868 0)
(159.561 -5.6577 0)
(170.531 1.7255 0)
(164.716 -0.675202 0)
(211.731 -8.43832 0)
(216.944 -19.2933 0)
(205.225 -30.7485 0)
(250.005 -31.1911 0)
(246.398 -24.9211 0)
(277.034 -19.5602 0)
(253.9 -10.8983 0)
(296.296 3.13506 0)
(290.985 10.5111 0)
(287.675 5.36479 0)
(274.462 1.37101 0)
(279.076 5.52013 0)
(232.187 14.4131 0)
(175.833 30.1833 0)
(140.427 42.5659 0)
(101.783 59.9514 0)
(7.90677 66.8405 0)
(-47.3381 42.9403 0)
(-62.4417 0.510766 0)
(10.3707 -81.2811 0)
(43.5009 -72.8255 0)
(71.6637 -60.867 0)
(91.8737 -60.1098 0)
(124.916 -50.9446 0)
(158.38 -31.8795 0)
(185.665 -8.41991 0)
(194.027 7.87581 0)
(186.953 14.4497 0)
(183.375 18.5576 0)
(168.717 13.8171 0)
(175.219 2.69718 0)
(199.113 -8.92051 0)
(198.245 -10.0706 0)
(185.068 -5.86484 0)
(188.605 -2.48919 0)
(171.72 -3.74414 0)
(122.975 -3.30009 0)
(59.5469 6.6234 0)
(40.8643 21.2704 0)
(-31.8229 36.4778 0)
(-78.1108 47.2765 0)
(-177.686 54.8123 0)
(-210.318 66.4997 0)
(-277.187 77.099 0)
(-301.761 79.4404 0)
(-384.347 81.8766 0)
(-433.784 89.1737 0)
(-465.487 84.8545 0)
(-549.601 66.4686 0)
(-639.625 49.0141 0)
(-661.375 34.4501 0)
(-678.987 20.5924 0)
(-681.621 1.97043 0)
(-684.204 -12.2725 0)
(-658.023 -19.9726 0)
(-644.833 -39.1931 0)
(-630.766 -51.9359 0)
(-582.865 -56.848 0)
(-549.249 -67.9121 0)
(-481.6 -84.2122 0)
(-427.7 -99.8824 0)
(-345.124 -112.234 0)
(-272.028 -121.462 0)
(-194.395 -122.468 0)
(-155.063 -113.657 0)
(-76.6727 -93.5491 0)
(-19.7141 -67.4213 0)
(47.7974 -54.1622 0)
(90.632 -41.5418 0)
(158.634 -6.4703 0)
(160.387 29.6118 0)
(216.424 47.663 0)
(205.631 55.4956 0)
(197.058 42.7907 0)
(212.683 18.7562 0)
(203.274 -10.6092 0)
(195.658 -27.7158 0)
(181.577 -21.2615 0)
(191.729 -3.80603 0)
(191.626 14.322 0)
(216.204 16.89 0)
(226.167 23.0529 0)
(220.337 32.7763 0)
(215.488 28.5871 0)
(218.306 12.2867 0)
(214.741 8.51588 0)
(216.548 19.9646 0)
(202.325 23.1545 0)
(210.886 5.95714 0)
(181.277 -9.95161 0)
(146.264 -12.8794 0)
(97.0624 -18.3636 0)
(66.2479 -14.2191 0)
(26.0555 -11.6458 0)
(23.4952 -8.82414 0)
(27.188 -7.69702 0)
(38.7636 -14.7752 0)
(42.2661 -12.2401 0)
(79.752 -3.20602 0)
(105.076 -5.90918 0)
(115.086 -13.8093 0)
(153.496 -20.7402 0)
(127.489 -32.6587 0)
(158.58 -36.6532 0)
(183.629 -29.5866 0)
(196.075 -20.3763 0)
(177.875 -10.3432 0)
(201.041 0.243893 0)
(198.197 8.24857 0)
(227.83 5.01225 0)
(230.603 4.53111 0)
(195.992 13.5078 0)
(148.189 26.6542 0)
(103.143 39.7801 0)
(88.3837 54.1876 0)
(8.28017 77.0337 0)
(-47.9319 81.2229 0)
(-113.168 53.2398 0)
(-117.493 2.90742 0)
(1.30474 -87.8085 0)
(35.9129 -78.6372 0)
(56.2555 -67.0465 0)
(69.3505 -66.6721 0)
(99.4786 -58.4391 0)
(125.522 -39.5973 0)
(153.51 -13.1095 0)
(167.886 6.80439 0)
(170.71 15.2854 0)
(161.83 20.1557 0)
(166.68 13.8948 0)
(171.488 -1.00356 0)
(176.206 -12.2701 0)
(191.361 -9.01393 0)
(172.644 -2.48687 0)
(143.251 1.84149 0)
(135.234 6.28908 0)
(70.0937 12.8164 0)
(-8.19146 20.4617 0)
(-59.8378 33.6293 0)
(-123.239 51.145 0)
(-166.027 64.3108 0)
(-264.537 73.7382 0)
(-345.382 80.2427 0)
(-378.683 89.8301 0)
(-452.329 93.4971 0)
(-502.333 96.0776 0)
(-576.748 100.594 0)
(-620.453 100.321 0)
(-711.432 86.9719 0)
(-774.581 62.83 0)
(-797.273 41.1737 0)
(-813.052 21.8323 0)
(-803.415 1.23196 0)
(-807.908 -16.4964 0)
(-776.821 -25.3499 0)
(-757.908 -42.8368 0)
(-750.926 -58.0682 0)
(-717.168 -67.4424 0)
(-659.039 -81.1801 0)
(-608.824 -99.0521 0)
(-549.321 -119.718 0)
(-442.843 -130.451 0)
(-385.766 -138.667 0)
(-330.269 -137.641 0)
(-265.269 -126.441 0)
(-220.989 -110.168 0)
(-126.635 -85.7148 0)
(-54.2106 -68.3379 0)
(-6.07907 -52.3825 0)
(25.4834 -16.6493 0)
(84.6384 18.388 0)
(134.107 42.0321 0)
(127.313 55.0267 0)
(154.341 41.1972 0)
(149.182 17.4368 0)
(167.592 -8.13337 0)
(136.279 -23.9494 0)
(132.551 -19.1421 0)
(110.237 -5.86499 0)
(138.945 9.16784 0)
(161.937 14.2472 0)
(152.967 22.5201 0)
(159.336 32.2024 0)
(179.588 28.0828 0)
(170.091 13.1014 0)
(164.75 8.60478 0)
(176.316 20.0796 0)
(173.653 23.3367 0)
(170.044 10.5177 0)
(131.943 -0.3595 0)
(103.855 -2.69403 0)
(31.9565 -4.02842 0)
(-21.2142 -5.38028 0)
(-47.9859 -5.8306 0)
(-77.4256 -8.44848 0)
(-54.9072 -8.60709 0)
(-67.9575 -16.6217 0)
(-46.761 -16.842 0)
(-41.7935 -9.73214 0)
(-0.093735 -11.4323 0)
(12.3253 -20.4904 0)
(52.17 -23.1687 0)
(37.0983 -33.7662 0)
(52.527 -40.4764 0)
(66.0653 -32.693 0)
(65.2016 -22.5776 0)
(93.4203 -11.8507 0)
(100.802 -2.04606 0)
(101.02 3.27078 0)
(138.728 0.683965 0)
(143.066 8.19227 0)
(96.3371 23.7819 0)
(69.9236 34.7209 0)
(43.467 48.3461 0)
(11.6735 68.418 0)
(-64.8624 92.8913 0)
(-118.732 91.7293 0)
(-152.549 62.7169 0)
(-169.117 7.9297 0)
(-2.34141 -92.8096 0)
(28.1306 -82.1758 0)
(39.5185 -70.719 0)
(45.7264 -71.4719 0)
(66.8766 -65.0918 0)
(90.4439 -46.1016 0)
(114.526 -17.8459 0)
(133.825 4.90758 0)
(137.337 14.0533 0)
(144.199 19.4669 0)
(144.762 14.2585 0)
(161.346 -2.30373 0)
(159.35 -13.6135 0)
(146.885 -7.43448 0)
(149.971 3.09691 0)
(111.178 8.17169 0)
(67.5522 17.3978 0)
(29.713 28.5959 0)
(-53.9116 38.7391 0)
(-115.237 51.5543 0)
(-211.334 66.7053 0)
(-296.816 84.2734 0)
(-372.913 95.4642 0)
(-459.977 95.6222 0)
(-516.383 102.965 0)
(-565.808 109.946 0)
(-657.117 112.794 0)
(-717.087 118.426 0)
(-782.874 120.329 0)
(-846.225 105.9 0)
(-876.598 73.0216 0)
(-906.489 44.4325 0)
(-920.516 21.4302 0)
(-913.724 2.04561 0)
(-922.263 -20.0339 0)
(-880.586 -32.5193 0)
(-867.155 -47.0173 0)
(-848.664 -63.6827 0)
(-809.713 -77.5112 0)
(-781.055 -94.9366 0)
(-705.758 -113.871 0)
(-656.183 -137.771 0)
(-586.518 -151.053 0)
(-490.909 -155.241 0)
(-429.75 -150.461 0)
(-390.138 -140.918 0)
(-336.356 -127.905 0)
(-240.709 -107.131 0)
(-179.751 -85.3934 0)
(-93.399 -62.8158 0)
(-75.6632 -29.8295 0)
(0.248664 6.06946 0)
(22.7212 37.1145 0)
(46.6891 50.301 0)
(87.1899 37.5715 0)
(83.0094 15.0747 0)
(107.859 -7.55077 0)
(94.6733 -17.7559 0)
(48.703 -14.673 0)
(45.4373 -6.20606 0)
(44.7201 5.11444 0)
(81.0745 10.7897 0)
(73.1572 20.3407 0)
(107.267 30.1042 0)
(102.494 26.2459 0)
(122.468 13.0572 0)
(107.742 8.87543 0)
(117.098 19.6669 0)
(108.886 23.4645 0)
(118.584 16.2616 0)
(70.9711 8.38298 0)
(43.4326 10.9255 0)
(-22.0527 11.7319 0)
(-92.1873 7.85737 0)
(-145.181 2.18251 0)
(-170.969 -5.96549 0)
(-169.503 -9.53087 0)
(-160.594 -17.4768 0)
(-170.218 -20.651 0)
(-131.668 -15.5263 0)
(-128.305 -17.2405 0)
(-92.4445 -26.0256 0)
(-98.8546 -27.9227 0)
(-61.6127 -35.6526 0)
(-66.9992 -42.7537 0)
(-35.0403 -34.4843 0)
(-41.781 -25.75 0)
(-24.6413 -14.7464 0)
(-2.78747 -5.44646 0)
(22.4771 -3.70254 0)
(44.9034 -1.4023 0)
(15.7126 13.2967 0)
(13.8962 30.6749 0)
(-17.5753 41.8983 0)
(-46.9618 57.235 0)
(-91.3937 81.5999 0)
(-131.26 103.772 0)
(-157.161 100.436 0)
(-204.275 71.0547 0)
(-202.598 12.7367 0)
(-8.2975 -96.6149 0)
(18.8018 -84.0149 0)
(26.8081 -73.1246 0)
(23.8144 -73.9034 0)
(36.6613 -69.4247 0)
(51.0873 -51.9622 0)
(76.6648 -22.3175 0)
(92.9882 2.117 0)
(107.732 11.6668 0)
(110.033 17.0192 0)
(129.162 11.7859 0)
(127.537 -3.23932 0)
(133.501 -11.1761 0)
(102.909 -4.82742 0)
(97.0657 8.43149 0)
(63.4473 18.8972 0)
(13.7796 27.4895 0)
(-20.4612 44.1036 0)
(-118.072 57.1706 0)
(-168.848 72.1374 0)
(-257.142 89.0902 0)
(-372.246 107.674 0)
(-479.158 115.833 0)
(-545.392 114.326 0)
(-617.73 119.526 0)
(-690.307 130.147 0)
(-784.981 135.691 0)
(-855.71 134.501 0)
(-906.019 130.072 0)
(-930.606 112.996 0)
(-969.302 80.7973 0)
(-997.93 50.2997 0)
(-995.271 22.1966 0)
(-1001.41 2.55308 0)
(-1012.07 -22.7136 0)
(-986.561 -39.6393 0)
(-954.843 -52.8927 0)
(-956.996 -67.9579 0)
(-923.447 -87.3353 0)
(-863.602 -108.549 0)
(-821.493 -128.231 0)
(-748.281 -154.161 0)
(-702.051 -167.631 0)
(-635.374 -173.613 0)
(-554.967 -168.169 0)
(-479.884 -155.607 0)
(-417.528 -144.129 0)
(-363.41 -126.849 0)
(-263.475 -102.558 0)
(-209.605 -75.9161 0)
(-176.684 -43.3556 0)
(-97.5839 -4.6482 0)
(-71.6342 28.6859 0)
(-20.2605 42.21 0)
(0.170076 31.5354 0)
(27.0086 12.157 0)
(21.5831 -7.54695 0)
(17.889 -13.4007 0)
(-20.43 -6.539 0)
(-48.0888 -4.23013 0)
(-27.6283 2.35468 0)
(-29.4842 6.47371 0)
(2.20517 14.4127 0)
(29.1432 27.2541 0)
(12.4989 24.6364 0)
(43.3131 9.83418 0)
(45.9801 9.85266 0)
(25.0239 20.1586 0)
(36.3227 23.4602 0)
(26.4884 19.9266 0)
(11.8153 16.8466 0)
(-35.4548 25.0687 0)
(-117.942 27.8964 0)
(-162.213 21.9812 0)
(-226.66 12.9705 0)
(-255.504 -1.47781 0)
(-252.433 -7.7489 0)
(-281.926 -16.5803 0)
(-268.247 -24.1 0)
(-262.272 -19.9172 0)
(-234.956 -21.648 0)
(-229.224 -28.1967 0)
(-237.886 -31.4651 0)
(-195.159 -40.6637 0)
(-197.501 -44.3909 0)
(-184.599 -37.7152 0)
(-170.977 -29.4993 0)
(-144.448 -20.9186 0)
(-86.092 -12.2338 0)
(-90.0649 -7.87946 0)
(-77.1164 -0.14365 0)
(-100.656 16.2452 0)
(-84.9971 32.7911 0)
(-125.943 48.3588 0)
(-133.144 65.2807 0)
(-166.967 90.748 0)
(-173.045 110.117 0)
(-210.87 108.308 0)
(-257.784 76.4804 0)
(-239.58 14.1264 0)
(-20.1246 -98.522 0)
(6.86846 -84.8084 0)
(9.52308 -73.7211 0)
(-4.06018 -74.5955 0)
(-2.12647 -72.2444 0)
(5.23542 -57.2258 0)
(27.5341 -27.6174 0)
(51.4655 -1.98971 0)
(68.491 8.42894 0)
(76.0749 14.0609 0)
(101.011 10.1692 0)
(102.064 -3.05732 0)
(86.5652 -8.8945 0)
(80.6057 -1.21088 0)
(62.3357 15.0372 0)
(29.5778 29.555 0)
(-19.9744 39.789 0)
(-81.4143 60.9868 0)
(-156.472 76.7157 0)
(-238.267 92.2315 0)
(-342.037 116.026 0)
(-450.383 135.484 0)
(-542.631 138.24 0)
(-640.72 131.304 0)
(-726.517 138.478 0)
(-803.411 153.521 0)
(-900.665 152.87 0)
(-960.576 145.355 0)
(-1015.75 136.12 0)
(-1010.31 117.956 0)
(-1044.19 88.4162 0)
(-1049.75 53.1084 0)
(-1069.4 23.3993 0)
(-1056.34 3.44214 0)
(-1060.52 -21.8569 0)
(-1069.24 -41.7468 0)
(-1059.01 -58.0875 0)
(-1026.3 -76.0359 0)
(-969.946 -96.8887 0)
(-961.387 -120.709 0)
(-891.041 -141 0)
(-868.328 -166.612 0)
(-812.904 -183.796 0)
(-721.487 -191.46 0)
(-677.677 -185.782 0)
(-593.286 -172.544 0)
(-544.709 -160.453 0)
(-451.793 -147.255 0)
(-383.268 -121.214 0)
(-297.198 -88.2937 0)
(-265.065 -56.3396 0)
(-202.888 -19.1094 0)
(-142.039 18.1705 0)
(-117.86 33.1516 0)
(-69.507 24.3392 0)
(-53.9791 8.852 0)
(-42.6472 -5.91457 0)
(-95.502 -6.90005 0)
(-89.7273 -0.710927 0)
(-127.688 -0.659933 0)
(-142.175 2.15417 0)
(-121.337 0.71309 0)
(-103.886 7.05318 0)
(-93.6571 26.5816 0)
(-94.9562 22.9764 0)
(-63.4376 5.90096 0)
(-77.2998 11.4639 0)
(-79.9151 22.3583 0)
(-76.1254 22.8094 0)
(-66.775 22.4935 0)
(-98.4574 25.9845 0)
(-166.248 40.9808 0)
(-209.742 42.4494 0)
(-276.603 35.8639 0)
(-309.029 21.7375 0)
(-332.944 5.01254 0)
(-373.745 -3.33516 0)
(-371.858 -15.3482 0)
(-394.69 -26.349 0)
(-367.088 -21.671 0)
(-372.436 -21.4638 0)
(-396.131 -29.275 0)
(-356.451 -35.8134 0)
(-356.35 -45.1915 0)
(-339.066 -47.0618 0)
(-314.332 -42.9924 0)
(-278.683 -36.8218 0)
(-244.705 -30.8212 0)
(-180.639 -21.3308 0)
(-182.064 -10.346 0)
(-152.688 2.67134 0)
(-191.06 18.8787 0)
(-188.278 35.6423 0)
(-203.377 53.0642 0)
(-235.587 69.7487 0)
(-226.189 94.3264 0)
(-236.673 114.415 0)
(-273.119 114.028 0)
(-282.619 80.0185 0)
(-258.166 17.5311 0)
(-30.8338 -97.6424 0)
(-5.54308 -83.9454 0)
(-11.8676 -72.4005 0)
(-34.3961 -72.1274 0)
(-43.6639 -71.9107 0)
(-44.1519 -60.3066 0)
(-26.4474 -32.7554 0)
(4.18211 -7.4712 0)
(22.6312 3.60718 0)
(40.0359 9.51771 0)
(55.3655 7.31377 0)
(63.7754 -1.23956 0)
(38.7235 -6.41065 0)
(38.1249 2.17773 0)
(9.21991 22.1642 0)
(-10.1348 39.3527 0)
(-61.1459 52.348 0)
(-110.224 77.3474 0)
(-203.93 97.4753 0)
(-281.259 117.081 0)
(-388.111 141.775 0)
(-501.799 162.577 0)
(-601.438 165.454 0)
(-712.244 159.966 0)
(-813.537 159.933 0)
(-890.927 174.442 0)
(-995.005 173.658 0)
(-1026.57 162.594 0)
(-1086.42 145.836 0)
(-1091.07 120.209 0)
(-1089.9 91.6031 0)
(-1105.08 55.8224 0)
(-1098.49 25.9302 0)
(-1130.26 4.10069 0)
(-1106.01 -23.331 0)
(-1111.44 -42.1761 0)
(-1103.6 -61.1859 0)
(-1094.65 -85.2133 0)
(-1031.31 -105.878 0)
(-1020.14 -128.786 0)
(-973.709 -151.99 0)
(-948.096 -179.145 0)
(-875.52 -199.563 0)
(-841.28 -206.095 0)
(-757.721 -201.996 0)
(-713.663 -189.515 0)
(-632.263 -178 0)
(-570.255 -166.731 0)
(-492.944 -139.647 0)
(-415.689 -105.999 0)
(-334.699 -71.4799 0)
(-297.398 -31.2401 0)
(-229.971 7.26546 0)
(-207.496 23.9544 0)
(-159.28 17.8105 0)
(-171.187 6.00361 0)
(-149.169 -3.37573 0)
(-201.294 -0.610197 0)
(-199.08 3.53019 0)
(-229.039 5.71005 0)
(-251.629 3.60253 0)
(-238.492 -2.5592 0)
(-265.401 2.80996 0)
(-209.127 24.1368 0)
(-181.205 20.1166 0)
(-200.436 4.47563 0)
(-206.449 10.8632 0)
(-167.122 22.1878 0)
(-185.921 24.3037 0)
(-209.743 26.2104 0)
(-220.206 34.9595 0)
(-268.243 54.6934 0)
(-337.026 55.9607 0)
(-374.659 47.5397 0)
(-429.632 30.982 0)
(-473.124 13.4561 0)
(-496.629 0.985019 0)
(-488.888 -14.5735 0)
(-491.349 -25.8739 0)
(-518.818 -23.0844 0)
(-478.876 -20.3306 0)
(-511.546 -29.7273 0)
(-487.453 -39.7257 0)
(-475.728 -49.9828 0)
(-446.583 -52.6914 0)
(-411.436 -52.5096 0)
(-342.147 -48.316 0)
(-295.296 -39.8647 0)
(-287.465 -27.5186 0)
(-252.348 -14.9509 0)
(-265.701 4.81823 0)
(-283.116 23.922 0)
(-304.377 39.3044 0)
(-322.125 56.0784 0)
(-306.24 71.2189 0)
(-310.458 93.3729 0)
(-274.265 115.376 0)
(-304.619 118.019 0)
(-319.131 78.6928 0)
(-265.697 16.356 0)
(-40.5859 -93.9003 0)
(-21.834 -81.1914 0)
(-35.6238 -68.8639 0)
(-64.2722 -67.6406 0)
(-81.332 -70.0008 0)
(-94.5551 -62.6097 0)