/*--------------------------------*- C++ -*----------------------------------*\
| =========                 |                                                 |
| \\      /  F ield         | foam-extend: Open Source CFD                    |
|  \\    /   O peration     | Version:     5.0                                |
|   \\  /    A nd           | Web:         http://www.foam-extend.org         |
|    \\/     M anipulation  |                                                 |
\*---------------------------------------------------------------------------*/
FoamFile
{
    version     2.0;
    format      ascii;
    class       regIOobject;
    location    "0.035/uniform";
    object      profilingInfo;
}
// * * * * * * * * * * * * * * * * * * * * * * * * * * * * * * * * * * * * * //

profilingInfo
(

    {
        id              13;
        parentId        12;
        description     "Foam::Time::writeObject - outputTime";
        calls           7;
        totalTime       0.103293;
        childTime       0;
        onStack         1;
    }

    {
        id              12;
        parentId        1;
        description     "Foam::Time::writeObject";
        calls           7;
        totalTime       0.103346;
        childTime       0.103293;
        onStack         1;
    }

    {
        id              1;
        description     "application::main";
        calls           1;
        totalTime       0.394977;
        childTime       0.2838;
        onStack         1;
    }

    {
        id              5;
        parentId        1;
        description     "functionObjectList::read";
        calls           1;
        totalTime       3e-06;
        childTime       0;
        onStack         0;
    }

    {
        id              9;
        parentId        1;
        description     "fvMatrix::solve_U";
        calls           14;
        totalTime       0.013199;
        childTime       0.012393;
        onStack         0;
    }

    {
        id              6;
        parentId        1;
        description     "fvMatrix::solve_Voltage";
        calls           14;
        totalTime       0.008381;
        childTime       0.007924;
        onStack         0;
    }

    {
        id              2;
        parentId        1;
        description     "fvMatrix::solve_pd";
        calls           29;
        totalTime       0.158871;
        childTime       0.157516;
        onStack         0;
    }

    {
        id              10;
        parentId        9;
        description     "lduMatrix::solver_Ux";
        calls           14;
        totalTime       0.006348;
        childTime       0;
        onStack         0;
    }

    {
        id              11;
        parentId        9;
        description     "lduMatrix::solver_Uy";
        calls           14;
        totalTime       0.006045;
        childTime       0;
        onStack         0;
    }

    {
        id              7;
        parentId        6;
        description     "lduMatrix::solver_Voltage";
        calls           14;
        totalTime       0.007924;
        childTime       7.1e-05;
        onStack         0;
    }

    {
        id              3;
        parentId        2;
        description     "lduMatrix::solver_pd";
        calls           29;
        totalTime       0.157516;
        childTime       0.001959;
        onStack         0;
    }

    {
        id              4;
        parentId        3;
        description     "lduMatrix::solver_topLevelCorr";
        calls           580;
        totalTime       0.001959;
        childTime       0;
        onStack         0;
    }

    {
        id              8;
        parentId        7;
        description     "lduMatrix::solver_topLevelCorr";
        calls           14;
        totalTime       7.1e-05;
        childTime       0;
        onStack         0;
    }
);


// ************************************************************************* //
