/*--------------------------------*- C++ -*----------------------------------*\
| =========                 |                                                 |
| \\      /  F ield         | foam-extend: Open Source CFD                    |
|  \\    /   O peration     | Version:     5.0                                |
|   \\  /    A nd           | Web:         http://www.foam-extend.org         |
|    \\/     M anipulation  |                                                 |
\*---------------------------------------------------------------------------*/
FoamFile
{
    version     2.0;
    format      ascii;
    class       regIOobject;
    location    "0.01/uniform";
    object      profilingInfo;
}
// * * * * * * * * * * * * * * * * * * * * * * * * * * * * * * * * * * * * * //

profilingInfo
(

    {
        id              13;
        parentId        12;
        description     "Foam::Time::writeObject - outputTime";
        calls           2;
        totalTime       0.029177;
        childTime       0;
        onStack         1;
    }

    {
        id              12;
        parentId        1;
        description     "Foam::Time::writeObject";
        calls           2;
        totalTime       0.029208;
        childTime       0.029177;
        onStack         1;
    }

    {
        id              1;
        description     "application::main";
        calls           1;
        totalTime       0.130324;
        childTime       0.08438;
        onStack         1;
    }

    {
        id              5;
        parentId        1;
        description     "functionObjectList::read";
        calls           1;
        totalTime       3e-06;
        childTime       0;
        onStack         0;
    }

    {
        id              9;
        parentId        1;
        description     "fvMatrix::solve_U";
        calls           4;
        totalTime       0.003636;
        childTime       0.003388;
        onStack         0;
    }

    {
        id              6;
        parentId        1;
        description     "fvMatrix::solve_Voltage";
        calls           4;
        totalTime       0.002391;
        childTime       0.002266;
        onStack         0;
    }

    {
        id              2;
        parentId        1;
        description     "fvMatrix::solve_pd";
        calls           9;
        totalTime       0.049142;
        childTime       0.048613;
        onStack         0;
    }

    {
        id              10;
        parentId        9;
        description     "lduMatrix::solver_Ux";
        calls           4;
        totalTime       0.001704;
        childTime       0;
        onStack         0;
    }

    {
        id              11;
        parentId        9;
        description     "lduMatrix::solver_Uy";
        calls           4;
        totalTime       0.001684;
        childTime       0;
        onStack         0;
    }

    {
        id              7;
        parentId        6;
        description     "lduMatrix::solver_Voltage";
        calls           4;
        totalTime       0.002266;
        childTime       2.1e-05;
        onStack         0;
    }

    {
        id              3;
        parentId        2;
        description     "lduMatrix::solver_pd";
        calls           9;
        totalTime       0.048613;
        childTime       0.000585;
        onStack         0;
    }

    {
        id              4;
        parentId        3;
        description     "lduMatrix::solver_topLevelCorr";
        calls           180;
        totalTime       0.000585;
        childTime       0;
        onStack         0;
    }

    {
        id              8;
        parentId        7;
        description     "lduMatrix::solver_topLevelCorr";
        calls           4;
        totalTime       2.1e-05;
        childTime       0;
        onStack         0;
    }
);


// ************************************************************************* //
