/*--------------------------------*- C++ -*----------------------------------*\
| =========                 |                                                 |
| \\      /  F ield         | foam-extend: Open Source CFD                    |
|  \\    /   O peration     | Version:     5.0                                |
|   \\  /    A nd           | Web:         http://www.foam-extend.org         |
|    \\/     M anipulation  |                                                 |
\*---------------------------------------------------------------------------*/
FoamFile
{
    version     2.0;
    format      ascii;
    class       regIOobject;
    location    "1/uniform";
    object      profilingInfo;
}
// * * * * * * * * * * * * * * * * * * * * * * * * * * * * * * * * * * * * * //

profilingInfo
(

    {
        id              19;
        parentId        15;
        description     "Foam::Time::writeObject - outputTime";
        calls           2;
        totalTime       0.027785;
        childTime       0;
        onStack         1;
    }

    {
        id              15;
        parentId        1;
        description     "Foam::Time::writeObject";
        calls           10000;
        totalTime       0.049374;
        childTime       0.027785;
        onStack         1;
    }

    {
        id              1;
        description     "application::main";
        calls           1;
        totalTime       132.153;
        childTime       42.9941;
        onStack         1;
    }

    {
        id              18;
        parentId        1;
        description     "FO::minMaxAlpha1::execute";
        calls           9999;
        totalTime       0.092594;
        childTime       0;
        onStack         0;
    }

    {
        id              8;
        parentId        5;
        description     "FO::minMaxAlpha1::start";
        calls           1;
        totalTime       1e-06;
        childTime       0;
        onStack         0;
    }

    {
        id              16;
        parentId        1;
        description     "FO::minMaxPd::execute";
        calls           9999;
        totalTime       0.141162;
        childTime       0;
        onStack         0;
    }

    {
        id              6;
        parentId        5;
        description     "FO::minMaxPd::start";
        calls           1;
        totalTime       4e-06;
        childTime       0;
        onStack         0;
    }

    {
        id              17;
        parentId        1;
        description     "FO::minMaxU::execute";
        calls           9999;
        totalTime       0.263135;
        childTime       0;
        onStack         0;
    }

    {
        id              7;
        parentId        5;
        description     "FO::minMaxU::start";
        calls           1;
        totalTime       1e-06;
        childTime       0;
        onStack         0;
    }

    {
        id              5;
        parentId        1;
        description     "functionObjectList::read";
        calls           1;
        totalTime       0.005604;
        childTime       6e-06;
        onStack         0;
    }

    {
        id              12;
        parentId        1;
        description     "fvMatrix::solve_U";
        calls           20000;
        totalTime       8.25722;
        childTime       7.08359;
        onStack         0;
    }

    {
        id              9;
        parentId        1;
        description     "fvMatrix::solve_Voltage";
        calls           20000;
        totalTime       11.4957;
        childTime       10.8396;
        onStack         0;
    }

    {
        id              2;
        parentId        1;
        description     "fvMatrix::solve_pd";
        calls           40001;
        totalTime       22.6893;
        childTime       21.4435;
        onStack         0;
    }

    {
        id              13;
        parentId        12;
        description     "lduMatrix::solver_Ux";
        calls           20000;
        totalTime       3.49009;
        childTime       0;
        onStack         0;
    }

    {
        id              14;
        parentId        12;
        description     "lduMatrix::solver_Uy";
        calls           20000;
        totalTime       3.5935;
        childTime       0;
        onStack         0;
    }

    {
        id              10;
        parentId        9;
        description     "lduMatrix::solver_Voltage";
        calls           20000;
        totalTime       10.8396;
        childTime       0.090193;
        onStack         0;
    }

    {
        id              3;
        parentId        2;
        description     "lduMatrix::solver_pd";
        calls           40001;
        totalTime       21.4435;
        childTime       0.17265;
        onStack         0;
    }

    {
        id              4;
        parentId        3;
        description     "lduMatrix::solver_topLevelCorr";
        calls           41101;
        totalTime       0.17265;
        childTime       0;
        onStack         0;
    }

    {
        id              11;
        parentId        10;
        description     "lduMatrix::solver_topLevelCorr";
        calls           20000;
        totalTime       0.090193;
        childTime       0;
        onStack         0;
    }
);


// ************************************************************************* //
