/*--------------------------------*- C++ -*----------------------------------*\
| =========                 |                                                 |
| \\      /  F ield         | foam-extend: Open Source CFD                    |
|  \\    /   O peration     | Version:     5.0                                |
|   \\  /    A nd           | Web:         http://www.foam-extend.org         |
|    \\/     M anipulation  |                                                 |
\*---------------------------------------------------------------------------*/
FoamFile
{
    version     2.0;
    format      ascii;
    class       volVectorField;
    location    "0.01";
    object      bodyForce;
}
// * * * * * * * * * * * * * * * * * * * * * * * * * * * * * * * * * * * * * //

dimensions      [0 1 -2 0 0 0 0];

internalField   nonuniform List<vector> 
4000
(
(-106.616 0 0)
(-118.586 0 0)
(-88.3449 0 0)
(-93.4832 0 0)
(-92.3946 0 0)
(-89.7985 0 0)
(-87.8553 0 0)
(-86.5813 0 0)
(-85.7392 0 0)
(-85.1752 0 0)
(-84.7987 0 0)
(-84.5503 0 0)
(-84.3885 0 0)
(-84.2845 0 0)
(-84.2183 0 0)
(-84.1766 0 0)
(-84.1505 0 0)
(-84.1344 0 0)
(-84.1245 0 0)
(-84.1185 0 0)
(-84.1148 0 0)
(-84.1126 0 0)
(-84.1113 0 0)
(-84.1105 0 0)
(-84.1101 0 0)
(-84.1098 0 0)
(-84.1096 0 0)
(-84.1095 0 0)
(-84.1095 0 0)
(-84.1095 0 0)
(-84.1095 0 0)
(-84.1094 0 0)
(-84.1094 0 0)
(-84.1094 0 0)
(-84.1094 0 0)
(-84.1094 0 0)
(-84.1095 0 0)
(-84.1095 0 0)
(-84.1095 0 0)
(-84.1095 0 0)
(-84.1095 0 0)
(-84.1095 0 0)
(-84.1095 0 0)
(-84.1095 0 0)
(-84.1095 0 0)
(-84.1095 0 0)
(-84.1095 0 0)
(-84.1095 0 0)
(-84.1095 0 0)
(-84.1095 0 0)
(-84.1095 0 0)
(-84.1095 0 0)
(-84.1095 0 0)
(-84.1095 0 0)
(-84.1095 0 0)
(-84.1095 0 0)
(-84.1095 0 0)
(-84.1095 0 0)
(-84.1095 0 0)
(-84.1095 0 0)
(-84.1095 0 0)
(-84.1095 0 0)
(-84.1095 0 0)
(-84.1095 0 0)
(-84.1095 0 0)
(-84.1095 0 0)
(-84.1095 0 0)
(-84.1095 0 0)
(-84.1095 0 0)
(-84.1095 0 0)
(-84.1095 0 0)
(-84.1095 0 0)
(-84.1095 0 0)
(-84.1094 0 0)
(-84.1094 0 0)
(-84.1094 0 0)
(-84.1094 0 0)
(-84.1094 0 0)
(-84.1094 0 0)
(-84.1094 0 0)
(-84.1094 0 0)
(-84.1094 0 0)
(-84.1094 0 0)
(-84.1094 0 0)
(-84.1095 0 0)
(-84.1095 0 0)
(-84.1097 0 0)
(-84.1099 0 0)
(-84.1103 0 0)
(-84.1111 0 0)
(-84.1123 0 0)
(-84.1144 0 0)
(-84.1181 0 0)
(-84.1252 0 0)
(-84.1416 0 0)
(-84.1722 0 0)
(-84.0693 0 0)
(-83.5801 0 0)
(-84.9574 0 0)
(-86.7321 0 0)
(-198.584 0 0)
(-205.343 0 0)
(-133.965 0 0)
(-133.277 0 0)
(-129.381 0 0)
(-124.271 0 0)
(-120.355 0 0)
(-117.67 0 0)
(-115.857 0 0)
(-114.638 0 0)
(-113.827 0 0)
(-113.293 0 0)
(-112.947 0 0)
(-112.725 0 0)
(-112.585 0 0)
(-112.496 0 0)
(-112.442 0 0)
(-112.408 0 0)
(-112.387 0 0)
(-112.374 0 0)
(-112.367 0 0)
(-112.362 0 0)
(-112.359 0 0)
(-112.358 0 0)
(-112.357 0 0)
(-112.356 0 0)
(-112.356 0 0)
(-112.356 0 0)
(-112.356 0 0)
(-112.356 0 0)
(-112.356 0 0)
(-112.356 0 0)
(-112.356 0 0)
(-112.356 0 0)
(-112.356 0 0)
(-112.356 0 0)
(-112.356 0 0)
(-112.356 0 0)
(-112.356 0 0)
(-112.356 0 0)
(-112.356 0 0)
(-112.356 0 0)
(-112.356 0 0)
(-112.356 0 0)
(-112.356 0 0)
(-112.356 0 0)
(-112.356 0 0)
(-112.356 0 0)
(-112.356 0 0)
(-112.356 0 0)
(-112.356 0 0)
(-112.356 0 0)
(-112.356 0 0)
(-112.356 0 0)
(-112.356 0 0)
(-112.356 0 0)
(-112.356 0 0)
(-112.356 0 0)
(-112.356 0 0)
(-112.356 0 0)
(-112.356 0 0)
(-112.356 0 0)
(-112.356 0 0)
(-112.356 0 0)
(-112.356 0 0)
(-112.356 0 0)
(-112.356 0 0)
(-112.356 0 0)
(-112.356 0 0)
(-112.356 0 0)
(-112.356 0 0)
(-112.356 0 0)
(-112.356 0 0)
(-112.356 0 0)
(-112.355 0 0)
(-112.355 0 0)
(-112.355 0 0)
(-112.355 0 0)
(-112.355 0 0)
(-112.355 0 0)
(-112.355 0 0)
(-112.355 0 0)
(-112.355 0 0)
(-112.355 0 0)
(-112.356 0 0)
(-112.356 0 0)
(-112.356 0 0)
(-112.356 0 0)
(-112.357 0 0)
(-112.359 0 0)
(-112.361 0 0)
(-112.365 0 0)
(-112.371 0 0)
(-112.382 0 0)
(-112.404 0 0)
(-112.434 0 0)
(-112.245 0 0)
(-111.618 0 0)
(-114.84 0 0)
(-113.356 0 0)
(-275.288 0 0)
(-320.212 0 0)
(-237.961 0 0)
(-230.372 0 0)
(-222.898 0 0)
(-216.123 0 0)
(-211.344 0 0)
(-208.153 0 0)
(-206.029 0 0)
(-204.618 0 0)
(-203.687 0 0)
(-203.081 0 0)
(-202.69 0 0)
(-202.442 0 0)
(-202.285 0 0)
(-202.187 0 0)
(-202.126 0 0)
(-202.088 0 0)
(-202.066 0 0)
(-202.052 0 0)
(-202.044 0 0)
(-202.039 0 0)
(-202.036 0 0)
(-202.034 0 0)
(-202.033 0 0)
(-202.032 0 0)
(-202.032 0 0)
(-202.032 0 0)
(-202.031 0 0)
(-202.031 0 0)
(-202.031 0 0)
(-202.031 0 0)
(-202.031 0 0)
(-202.031 0 0)
(-202.031 0 0)
(-202.031 0 0)
(-202.031 0 0)
(-202.031 0 0)
(-202.031 0 0)
(-202.031 0 0)
(-202.031 0 0)
(-202.031 0 0)
(-202.031 0 0)
(-202.031 0 0)
(-202.031 0 0)
(-202.031 0 0)
(-202.031 0 0)
(-202.031 0 0)
(-202.031 0 0)
(-202.031 0 0)
(-202.031 0 0)
(-202.031 0 0)
(-202.031 0 0)
(-202.031 0 0)
(-202.031 0 0)
(-202.031 0 0)
(-202.031 0 0)
(-202.031 0 0)
(-202.031 0 0)
(-202.031 0 0)
(-202.031 0 0)
(-202.031 0 0)
(-202.031 0 0)
(-202.031 0 0)
(-202.031 0 0)
(-202.031 0 0)
(-202.031 0 0)
(-202.031 0 0)
(-202.031 0 0)
(-202.031 0 0)
(-202.031 0 0)
(-202.031 0 0)
(-202.031 0 0)
(-202.031 0 0)
(-202.031 0 0)
(-202.031 0 0)
(-202.031 0 0)
(-202.031 0 0)
(-202.031 0 0)
(-202.031 0 0)
(-202.031 0 0)
(-202.031 0 0)
(-202.031 0 0)
(-202.031 0 0)
(-202.031 0 0)
(-202.032 0 0)
(-202.032 0 0)
(-202.032 0 0)
(-202.033 0 0)
(-202.034 0 0)
(-202.037 0 0)
(-202.041 0 0)
(-202.047 0 0)
(-202.058 0 0)
(-202.079 0 0)
(-202.115 0 0)
(-201.937 0 0)
(-201.352 0 0)
(-205.222 0 0)
(-199.642 0 0)
(-325.3 0 0)
(-410.787 0 0)
(-334.785 0 0)
(-326.594 0 0)
(-317.822 0 0)
(-310.498 0 0)
(-305.561 0 0)
(-302.337 0 0)
(-300.217 0 0)
(-298.82 0 0)
(-297.905 0 0)
(-297.313 0 0)
(-296.933 0 0)
(-296.693 0 0)
(-296.541 0 0)
(-296.447 0 0)
(-296.389 0 0)
(-296.354 0 0)
(-296.332 0 0)
(-296.319 0 0)
(-296.311 0 0)
(-296.306 0 0)
(-296.303 0 0)
(-296.302 0 0)
(-296.301 0 0)
(-296.3 0 0)
(-296.3 0 0)
(-296.299 0 0)
(-296.299 0 0)
(-296.299 0 0)
(-296.299 0 0)
(-296.299 0 0)
(-296.299 0 0)
(-296.299 0 0)
(-296.299 0 0)
(-296.299 0 0)
(-296.299 0 0)
(-296.299 0 0)
(-296.299 0 0)
(-296.299 0 0)
(-296.299 0 0)
(-296.299 0 0)
(-296.299 0 0)
(-296.299 0 0)
(-296.299 0 0)
(-296.299 0 0)
(-296.299 0 0)
(-296.299 0 0)
(-296.299 0 0)
(-296.299 0 0)
(-296.299 0 0)
(-296.299 0 0)
(-296.299 0 0)
(-296.299 0 0)
(-296.299 0 0)
(-296.299 0 0)
(-296.299 0 0)
(-296.299 0 0)
(-296.299 0 0)
(-296.299 0 0)
(-296.299 0 0)
(-296.299 0 0)
(-296.299 0 0)
(-296.299 0 0)
(-296.299 0 0)
(-296.299 0 0)
(-296.299 0 0)
(-296.299 0 0)
(-296.299 0 0)
(-296.299 0 0)
(-296.299 0 0)
(-296.299 0 0)
(-296.299 0 0)
(-296.299 0 0)
(-296.299 0 0)
(-296.299 0 0)
(-296.299 0 0)
(-296.299 0 0)
(-296.299 0 0)
(-296.299 0 0)
(-296.299 0 0)
(-296.299 0 0)
(-296.299 0 0)
(-296.299 0 0)
(-296.299 0 0)
(-296.299 0 0)
(-296.3 0 0)
(-296.3 0 0)
(-296.301 0 0)
(-296.302 0 0)
(-296.304 0 0)
(-296.308 0 0)
(-296.313 0 0)
(-296.323 0 0)
(-296.344 0 0)
(-296.388 0 0)
(-296.227 0 0)
(-295.637 0 0)
(-299.64 0 0)
(-293.399 0 0)
(-349.265 0 0)
(-457.88 0 0)
(-392.747 0 0)
(-388.568 0 0)
(-380.815 0 0)
(-373.928 0 0)
(-369.291 0 0)
(-366.276 0 0)
(-364.296 0 0)
(-362.992 0 0)
(-362.14 0 0)
(-361.59 0 0)
(-361.238 0 0)
(-361.015 0 0)
(-360.875 0 0)
(-360.789 0 0)
(-360.735 0 0)
(-360.703 0 0)
(-360.683 0 0)
(-360.671 0 0)
(-360.663 0 0)
(-360.659 0 0)
(-360.656 0 0)
(-360.655 0 0)
(-360.654 0 0)
(-360.653 0 0)
(-360.653 0 0)
(-360.653 0 0)
(-360.653 0 0)
(-360.653 0 0)
(-360.653 0 0)
(-360.653 0 0)
(-360.653 0 0)
(-360.653 0 0)
(-360.653 0 0)
(-360.653 0 0)
(-360.653 0 0)
(-360.653 0 0)
(-360.653 0 0)
(-360.653 0 0)
(-360.653 0 0)
(-360.653 0 0)
(-360.653 0 0)
(-360.653 0 0)
(-360.653 0 0)
(-360.653 0 0)
(-360.653 0 0)
(-360.653 0 0)
(-360.653 0 0)
(-360.653 0 0)
(-360.653 0 0)
(-360.653 0 0)
(-360.653 0 0)
(-360.653 0 0)
(-360.653 0 0)
(-360.653 0 0)
(-360.653 0 0)
(-360.653 0 0)
(-360.653 0 0)
(-360.653 0 0)
(-360.653 0 0)
(-360.653 0 0)
(-360.653 0 0)
(-360.653 0 0)
(-360.653 0 0)
(-360.653 0 0)
(-360.653 0 0)
(-360.653 0 0)
(-360.653 0 0)
(-360.653 0 0)
(-360.653 0 0)
(-360.653 0 0)
(-360.653 0 0)
(-360.653 0 0)
(-360.653 0 0)
(-360.653 0 0)
(-360.653 0 0)
(-360.653 0 0)
(-360.653 0 0)
(-360.653 0 0)
(-360.653 0 0)
(-360.653 0 0)
(-360.653 0 0)
(-360.653 0 0)
(-360.653 0 0)
(-360.653 0 0)
(-360.653 0 0)
(-360.654 0 0)
(-360.654 0 0)
(-360.655 0 0)
(-360.657 0 0)
(-360.66 0 0)
(-360.665 0 0)
(-360.674 0 0)
(-360.694 0 0)
(-360.742 0 0)
(-360.576 0 0)
(-359.929 0 0)
(-364.012 0 0)
(-357.65 0 0)
(-359.281 0 0)
(-479.73 0 0)
(-425.152 0 0)
(-426.479 0 0)
(-420.873 0 0)
(-415.009 0 0)
(-410.976 0 0)
(-408.341 0 0)
(-406.601 0 0)
(-405.45 0 0)
(-404.696 0 0)
(-404.209 0 0)
(-403.898 0 0)
(-403.701 0 0)
(-403.578 0 0)
(-403.501 0 0)
(-403.454 0 0)
(-403.425 0 0)
(-403.408 0 0)
(-403.397 0 0)
(-403.391 0 0)
(-403.387 0 0)
(-403.385 0 0)
(-403.384 0 0)
(-403.383 0 0)
(-403.382 0 0)
(-403.382 0 0)
(-403.382 0 0)
(-403.382 0 0)
(-403.382 0 0)
(-403.382 0 0)
(-403.382 0 0)
(-403.382 0 0)
(-403.382 0 0)
(-403.382 0 0)
(-403.382 0 0)
(-403.382 0 0)
(-403.382 0 0)
(-403.382 0 0)
(-403.382 0 0)
(-403.382 0 0)
(-403.382 0 0)
(-403.382 0 0)
(-403.382 0 0)
(-403.382 0 0)
(-403.382 0 0)
(-403.382 0 0)
(-403.382 0 0)
(-403.382 0 0)
(-403.382 0 0)
(-403.382 0 0)
(-403.382 0 0)
(-403.382 0 0)
(-403.382 0 0)
(-403.382 0 0)
(-403.382 0 0)
(-403.382 0 0)
(-403.382 0 0)
(-403.382 0 0)
(-403.382 0 0)
(-403.382 0 0)
(-403.382 0 0)
(-403.382 0 0)
(-403.382 0 0)
(-403.382 0 0)
(-403.382 0 0)
(-403.382 0 0)
(-403.382 0 0)
(-403.382 0 0)
(-403.382 0 0)
(-403.382 0 0)
(-403.382 0 0)
(-403.382 0 0)
(-403.382 0 0)
(-403.382 0 0)
(-403.382 0 0)
(-403.382 0 0)
(-403.382 0 0)
(-403.382 0 0)
(-403.382 0 0)
(-403.382 0 0)
(-403.382 0 0)
(-403.382 0 0)
(-403.382 0 0)
(-403.382 0 0)
(-403.382 0 0)
(-403.382 0 0)
(-403.383 0 0)
(-403.383 0 0)
(-403.384 0 0)
(-403.386 0 0)
(-403.388 0 0)
(-403.392 0 0)
(-403.4 0 0)
(-403.418 0 0)
(-403.468 0 0)
(-403.285 0 0)
(-402.578 0 0)
(-406.725 0 0)
(-400.434 0 0)
(-362.081 0 0)
(-487.379 0 0)
(-441.298 0 0)
(-448.094 0 0)
(-445.029 0 0)
(-440.482 0 0)
(-437.236 0 0)
(-435.092 0 0)
(-433.662 0 0)
(-432.708 0 0)
(-432.08 0 0)
(-431.673 0 0)
(-431.413 0 0)
(-431.249 0 0)
(-431.146 0 0)
(-431.082 0 0)
(-431.043 0 0)
(-431.019 0 0)
(-431.004 0 0)
(-430.995 0 0)
(-430.99 0 0)
(-430.987 0 0)
(-430.985 0 0)
(-430.984 0 0)
(-430.983 0 0)
(-430.983 0 0)
(-430.983 0 0)
(-430.983 0 0)
(-430.983 0 0)
(-430.982 0 0)
(-430.982 0 0)
(-430.982 0 0)
(-430.982 0 0)
(-430.982 0 0)
(-430.982 0 0)
(-430.982 0 0)
(-430.982 0 0)
(-430.982 0 0)
(-430.982 0 0)
(-430.982 0 0)
(-430.982 0 0)
(-430.982 0 0)
(-430.982 0 0)
(-430.982 0 0)
(-430.982 0 0)
(-430.982 0 0)
(-430.982 0 0)
(-430.982 0 0)
(-430.982 0 0)
(-430.982 0 0)
(-430.982 0 0)
(-430.982 0 0)
(-430.982 0 0)
(-430.982 0 0)
(-430.982 0 0)
(-430.982 0 0)
(-430.982 0 0)
(-430.982 0 0)
(-430.982 0 0)
(-430.982 0 0)
(-430.982 0 0)
(-430.982 0 0)
(-430.982 0 0)
(-430.982 0 0)
(-430.982 0 0)
(-430.982 0 0)
(-430.982 0 0)
(-430.982 0 0)
(-430.982 0 0)
(-430.982 0 0)
(-430.982 0 0)
(-430.982 0 0)
(-430.982 0 0)
(-430.982 0 0)
(-430.982 0 0)
(-430.982 0 0)
(-430.982 0 0)
(-430.982 0 0)
(-430.982 0 0)
(-430.982 0 0)
(-430.982 0 0)
(-430.982 0 0)
(-430.982 0 0)
(-430.982 0 0)
(-430.983 0 0)
(-430.983 0 0)
(-430.983 0 0)
(-430.983 0 0)
(-430.983 0 0)
(-430.984 0 0)
(-430.986 0 0)
(-430.988 0 0)
(-430.991 0 0)
(-430.997 0 0)
(-431.014 0 0)
(-431.063 0 0)
(-430.86 0 0)
(-430.106 0 0)
(-434.311 0 0)
(-428.135 0 0)
(-361.377 0 0)
(-487.473 0 0)
(-447.581 0 0)
(-459.143 0 0)
(-458.602 0 0)
(-455.466 0 0)
(-453.096 0 0)
(-451.512 0 0)
(-450.439 0 0)
(-449.714 0 0)
(-449.232 0 0)
(-448.918 0 0)
(-448.717 0 0)
(-448.59 0 0)
(-448.511 0 0)
(-448.462 0 0)
(-448.431 0 0)
(-448.413 0 0)
(-448.402 0 0)
(-448.395 0 0)
(-448.391 0 0)
(-448.389 0 0)
(-448.387 0 0)
(-448.386 0 0)
(-448.386 0 0)
(-448.385 0 0)
(-448.385 0 0)
(-448.385 0 0)
(-448.385 0 0)
(-448.385 0 0)
(-448.385 0 0)
(-448.385 0 0)
(-448.385 0 0)
(-448.385 0 0)
(-448.385 0 0)
(-448.385 0 0)
(-448.385 0 0)
(-448.385 0 0)
(-448.385 0 0)
(-448.385 0 0)
(-448.385 0 0)
(-448.385 0 0)
(-448.385 0 0)
(-448.385 0 0)
(-448.385 0 0)
(-448.385 0 0)
(-448.385 0 0)
(-448.385 0 0)
(-448.385 0 0)
(-448.385 0 0)
(-448.385 0 0)
(-448.385 0 0)
(-448.385 0 0)
(-448.385 0 0)
(-448.385 0 0)
(-448.385 0 0)
(-448.385 0 0)
(-448.385 0 0)
(-448.385 0 0)
(-448.385 0 0)
(-448.385 0 0)
(-448.385 0 0)
(-448.385 0 0)
(-448.385 0 0)
(-448.385 0 0)
(-448.385 0 0)
(-448.385 0 0)
(-448.385 0 0)
(-448.385 0 0)
(-448.385 0 0)
(-448.385 0 0)
(-448.385 0 0)
(-448.385 0 0)
(-448.385 0 0)
(-448.385 0 0)
(-448.385 0 0)
(-448.385 0 0)
(-448.385 0 0)
(-448.385 0 0)
(-448.385 0 0)
(-448.385 0 0)
(-448.385 0 0)
(-448.385 0 0)
(-448.385 0 0)
(-448.385 0 0)
(-448.385 0 0)
(-448.385 0 0)
(-448.385 0 0)
(-448.386 0 0)
(-448.386 0 0)
(-448.387 0 0)
(-448.389 0 0)
(-448.391 0 0)
(-448.396 0 0)
(-448.411 0 0)
(-448.457 0 0)
(-448.236 0 0)
(-447.449 0 0)
(-451.708 0 0)
(-445.638 0 0)
(-359.184 0 0)
(-483.926 0 0)
(-448.23 0 0)
(-463.656 0 0)
(-465.407 0 0)
(-463.653 0 0)
(-462.183 0 0)
(-461.189 0 0)
(-460.501 0 0)
(-460.025 0 0)
(-459.703 0 0)
(-459.492 0 0)
(-459.356 0 0)
(-459.27 0 0)
(-459.217 0 0)
(-459.183 0 0)
(-459.163 0 0)
(-459.15 0 0)
(-459.143 0 0)
(-459.138 0 0)
(-459.136 0 0)
(-459.134 0 0)
(-459.133 0 0)
(-459.133 0 0)
(-459.132 0 0)
(-459.132 0 0)
(-459.132 0 0)
(-459.132 0 0)
(-459.132 0 0)
(-459.132 0 0)
(-459.132 0 0)
(-459.132 0 0)
(-459.132 0 0)
(-459.132 0 0)
(-459.132 0 0)
(-459.132 0 0)
(-459.132 0 0)
(-459.132 0 0)
(-459.132 0 0)
(-459.132 0 0)
(-459.132 0 0)
(-459.132 0 0)
(-459.132 0 0)
(-459.132 0 0)
(-459.132 0 0)
(-459.132 0 0)
(-459.132 0 0)
(-459.132 0 0)
(-459.132 0 0)
(-459.132 0 0)
(-459.132 0 0)
(-459.132 0 0)
(-459.132 0 0)
(-459.132 0 0)
(-459.132 0 0)
(-459.132 0 0)
(-459.132 0 0)
(-459.132 0 0)
(-459.132 0 0)
(-459.132 0 0)
(-459.132 0 0)
(-459.132 0 0)
(-459.132 0 0)
(-459.132 0 0)
(-459.132 0 0)
(-459.132 0 0)
(-459.132 0 0)
(-459.132 0 0)
(-459.132 0 0)
(-459.132 0 0)
(-459.132 0 0)
(-459.132 0 0)
(-459.132 0 0)
(-459.132 0 0)
(-459.132 0 0)
(-459.132 0 0)
(-459.132 0 0)
(-459.132 0 0)
(-459.132 0 0)
(-459.132 0 0)
(-459.132 0 0)
(-459.132 0 0)
(-459.132 0 0)
(-459.132 0 0)
(-459.132 0 0)
(-459.132 0 0)
(-459.132 0 0)
(-459.132 0 0)
(-459.132 0 0)
(-459.133 0 0)
(-459.133 0 0)
(-459.134 0 0)
(-459.135 0 0)
(-459.138 0 0)
(-459.152 0 0)
(-459.195 0 0)
(-458.957 0 0)
(-458.151 0 0)
(-462.457 0 0)
(-456.472 0 0)
(-356.551 0 0)
(-478.959 0 0)
(-445.926 0 0)
(-464.338 0 0)
(-468.061 0 0)
(-467.589 0 0)
(-466.992 0 0)
(-466.593 0 0)
(-466.301 0 0)
(-466.084 0 0)
(-465.931 0 0)
(-465.828 0 0)
(-465.762 0 0)
(-465.719 0 0)
(-465.692 0 0)
(-465.676 0 0)
(-465.666 0 0)
(-465.66 0 0)
(-465.656 0 0)
(-465.654 0 0)
(-465.653 0 0)
(-465.652 0 0)
(-465.652 0 0)
(-465.651 0 0)
(-465.651 0 0)
(-465.651 0 0)
(-465.651 0 0)
(-465.651 0 0)
(-465.651 0 0)
(-465.651 0 0)
(-465.651 0 0)
(-465.651 0 0)
(-465.651 0 0)
(-465.651 0 0)
(-465.651 0 0)
(-465.651 0 0)
(-465.651 0 0)
(-465.651 0 0)
(-465.651 0 0)
(-465.651 0 0)
(-465.651 0 0)
(-465.651 0 0)
(-465.651 0 0)
(-465.651 0 0)
(-465.651 0 0)
(-465.651 0 0)
(-465.651 0 0)
(-465.651 0 0)
(-465.651 0 0)
(-465.651 0 0)
(-465.651 0 0)
(-465.651 0 0)
(-465.651 0 0)
(-465.651 0 0)
(-465.651 0 0)
(-465.651 0 0)
(-465.651 0 0)
(-465.651 0 0)
(-465.651 0 0)
(-465.651 0 0)
(-465.651 0 0)
(-465.651 0 0)
(-465.651 0 0)
(-465.651 0 0)
(-465.651 0 0)
(-465.651 0 0)
(-465.651 0 0)
(-465.651 0 0)
(-465.651 0 0)
(-465.651 0 0)
(-465.651 0 0)
(-465.651 0 0)
(-465.651 0 0)
(-465.651 0 0)
(-465.651 0 0)
(-465.651 0 0)
(-465.651 0 0)
(-465.651 0 0)
(-465.651 0 0)
(-465.651 0 0)
(-465.651 0 0)
(-465.651 0 0)
(-465.651 0 0)
(-465.651 0 0)
(-465.651 0 0)
(-465.651 0 0)
(-465.651 0 0)
(-465.651 0 0)
(-465.651 0 0)
(-465.651 0 0)
(-465.651 0 0)
(-465.652 0 0)
(-465.652 0 0)
(-465.654 0 0)
(-465.665 0 0)
(-465.705 0 0)
(-465.454 0 0)
(-464.638 0 0)
(-468.984 0 0)
(-463.061 0 0)
(-353.987 0 0)
(-473.762 0 0)
(-442.299 0 0)
(-462.938 0 0)
(-468.295 0 0)
(-468.965 0 0)
(-469.186 0 0)
(-469.363 0 0)
(-469.464 0 0)
(-469.509 0 0)
(-469.527 0 0)
(-469.535 0 0)
(-469.539 0 0)
(-469.541 0 0)
(-469.543 0 0)
(-469.544 0 0)
(-469.544 0 0)
(-469.545 0 0)
(-469.545 0 0)
(-469.545 0 0)
(-469.545 0 0)
(-469.545 0 0)
(-469.546 0 0)
(-469.546 0 0)
(-469.546 0 0)
(-469.546 0 0)
(-469.546 0 0)
(-469.546 0 0)
(-469.546 0 0)
(-469.546 0 0)
(-469.546 0 0)
(-469.546 0 0)
(-469.546 0 0)
(-469.546 0 0)
(-469.546 0 0)
(-469.546 0 0)
(-469.546 0 0)
(-469.546 0 0)
(-469.546 0 0)
(-469.546 0 0)
(-469.546 0 0)
(-469.546 0 0)
(-469.546 0 0)
(-469.546 0 0)
(-469.546 0 0)
(-469.546 0 0)
(-469.546 0 0)
(-469.546 0 0)
(-469.546 0 0)
(-469.546 0 0)
(-469.546 0 0)
(-469.546 0 0)
(-469.546 0 0)
(-469.546 0 0)
(-469.546 0 0)
(-469.546 0 0)
(-469.546 0 0)
(-469.546 0 0)
(-469.546 0 0)
(-469.546 0 0)
(-469.546 0 0)
(-469.546 0 0)
(-469.546 0 0)
(-469.546 0 0)
(-469.546 0 0)
(-469.546 0 0)
(-469.546 0 0)
(-469.546 0 0)
(-469.546 0 0)
(-469.546 0 0)
(-469.546 0 0)
(-469.546 0 0)
(-469.546 0 0)
(-469.546 0 0)
(-469.546 0 0)
(-469.546 0 0)
(-469.546 0 0)
(-469.546 0 0)
(-469.546 0 0)
(-469.546 0 0)
(-469.546 0 0)
(-469.546 0 0)
(-469.546 0 0)
(-469.546 0 0)
(-469.546 0 0)
(-469.546 0 0)
(-469.546 0 0)
(-469.546 0 0)
(-469.545 0 0)
(-469.545 0 0)
(-469.545 0 0)
(-469.545 0 0)
(-469.544 0 0)
(-469.545 0 0)
(-469.554 0 0)
(-469.591 0 0)
(-469.33 0 0)
(-468.511 0 0)
(-472.891 0 0)
(-467.01 0 0)
(-351.71 0 0)
(-468.925 0 0)
(-438.29 0 0)
(-460.544 0 0)
(-467.217 0 0)
(-468.876 0 0)
(-469.84 0 0)
(-470.559 0 0)
(-471.038 0 0)
(-471.339 0 0)
(-471.526 0 0)
(-471.644 0 0)
(-471.718 0 0)
(-471.765 0 0)
(-471.794 0 0)
(-471.813 0 0)
(-471.824 0 0)
(-471.831 0 0)
(-471.835 0 0)
(-471.838 0 0)
(-471.839 0 0)
(-471.84 0 0)
(-471.841 0 0)
(-471.841 0 0)
(-471.842 0 0)
(-471.842 0 0)
(-471.842 0 0)
(-471.842 0 0)
(-471.842 0 0)
(-471.842 0 0)
(-471.842 0 0)
(-471.842 0 0)
(-471.842 0 0)
(-471.842 0 0)
(-471.842 0 0)
(-471.842 0 0)
(-471.842 0 0)
(-471.842 0 0)
(-471.842 0 0)
(-471.842 0 0)
(-471.842 0 0)
(-471.842 0 0)
(-471.842 0 0)
(-471.842 0 0)
(-471.842 0 0)
(-471.842 0 0)
(-471.842 0 0)
(-471.842 0 0)
(-471.842 0 0)
(-471.842 0 0)
(-471.842 0 0)
(-471.842 0 0)
(-471.842 0 0)
(-471.842 0 0)
(-471.842 0 0)
(-471.842 0 0)
(-471.842 0 0)
(-471.842 0 0)
(-471.842 0 0)
(-471.842 0 0)
(-471.842 0 0)
(-471.842 0 0)
(-471.842 0 0)
(-471.842 0 0)
(-471.842 0 0)
(-471.842 0 0)
(-471.842 0 0)
(-471.842 0 0)
(-471.842 0 0)
(-471.842 0 0)
(-471.842 0 0)
(-471.842 0 0)
(-471.842 0 0)
(-471.842 0 0)
(-471.842 0 0)
(-471.842 0 0)
(-471.842 0 0)
(-471.842 0 0)
(-471.842 0 0)
(-471.842 0 0)
(-471.842 0 0)
(-471.842 0 0)
(-471.842 0 0)
(-471.842 0 0)
(-471.842 0 0)
(-471.842 0 0)
(-471.842 0 0)
(-471.842 0 0)
(-471.841 0 0)
(-471.841 0 0)
(-471.841 0 0)
(-471.84 0 0)
(-471.838 0 0)
(-471.837 0 0)
(-471.845 0 0)
(-471.879 0 0)
(-471.61 0 0)
(-470.792 0 0)
(-475.201 0 0)
(-469.347 0 0)
(-349.789 0 0)
(-464.697 0 0)
(-434.415 0 0)
(-457.809 0 0)
(-465.518 0 0)
(-468.012 0 0)
(-469.635 0 0)
(-470.849 0 0)
(-471.683 0 0)
(-472.227 0 0)
(-472.576 0 0)
(-472.8 0 0)
(-472.942 0 0)
(-473.033 0 0)
(-473.089 0 0)
(-473.124 0 0)
(-473.146 0 0)
(-473.16 0 0)
(-473.168 0 0)
(-473.173 0 0)
(-473.176 0 0)
(-473.177 0 0)
(-473.179 0 0)
(-473.179 0 0)
(-473.18 0 0)
(-473.18 0 0)
(-473.18 0 0)
(-473.18 0 0)
(-473.18 0 0)
(-473.18 0 0)
(-473.18 0 0)
(-473.18 0 0)
(-473.18 0 0)
(-473.18 0 0)
(-473.18 0 0)
(-473.18 0 0)
(-473.18 0 0)
(-473.18 0 0)
(-473.18 0 0)
(-473.18 0 0)
(-473.18 0 0)
(-473.18 0 0)
(-473.18 0 0)
(-473.18 0 0)
(-473.18 0 0)
(-473.18 0 0)
(-473.18 0 0)
(-473.18 0 0)
(-473.18 0 0)
(-473.18 0 0)
(-473.18 0 0)
(-473.18 0 0)
(-473.18 0 0)
(-473.18 0 0)
(-473.18 0 0)
(-473.18 0 0)
(-473.18 0 0)
(-473.18 0 0)
(-473.18 0 0)
(-473.18 0 0)
(-473.18 0 0)
(-473.18 0 0)
(-473.18 0 0)
(-473.18 0 0)
(-473.18 0 0)
(-473.18 0 0)
(-473.18 0 0)
(-473.18 0 0)
(-473.18 0 0)
(-473.18 0 0)
(-473.18 0 0)
(-473.18 0 0)
(-473.18 0 0)
(-473.18 0 0)
(-473.18 0 0)
(-473.18 0 0)
(-473.18 0 0)
(-473.18 0 0)
(-473.18 0 0)
(-473.18 0 0)
(-473.18 0 0)
(-473.18 0 0)
(-473.18 0 0)
(-473.18 0 0)
(-473.18 0 0)
(-473.18 0 0)
(-473.18 0 0)
(-473.18 0 0)
(-473.179 0 0)
(-473.179 0 0)
(-473.178 0 0)
(-473.176 0 0)
(-473.174 0 0)
(-473.172 0 0)
(-473.179 0 0)
(-473.21 0 0)
(-472.936 0 0)
(-472.121 0 0)
(-476.553 0 0)
(-470.716 0 0)
(-348.219 0 0)
(-461.147 0 0)
(-430.932 0 0)
(-455.109 0 0)
(-463.618 0 0)
(-466.803 0 0)
(-468.994 0 0)
(-470.651 0 0)
(-471.808 0 0)
(-472.576 0 0)
(-473.077 0 0)
(-473.401 0 0)
(-473.607 0 0)
(-473.738 0 0)
(-473.82 0 0)
(-473.872 0 0)
(-473.903 0 0)
(-473.923 0 0)
(-473.934 0 0)
(-473.941 0 0)
(-473.946 0 0)
(-473.948 0 0)
(-473.95 0 0)
(-473.951 0 0)
(-473.951 0 0)
(-473.952 0 0)
(-473.952 0 0)
(-473.952 0 0)
(-473.952 0 0)
(-473.952 0 0)
(-473.952 0 0)
(-473.952 0 0)
(-473.952 0 0)
(-473.952 0 0)
(-473.952 0 0)
(-473.952 0 0)
(-473.952 0 0)
(-473.952 0 0)
(-473.952 0 0)
(-473.952 0 0)
(-473.952 0 0)
(-473.952 0 0)
(-473.952 0 0)
(-473.952 0 0)
(-473.952 0 0)
(-473.952 0 0)
(-473.952 0 0)
(-473.952 0 0)
(-473.952 0 0)
(-473.952 0 0)
(-473.952 0 0)
(-473.952 0 0)
(-473.952 0 0)
(-473.952 0 0)
(-473.952 0 0)
(-473.952 0 0)
(-473.952 0 0)
(-473.952 0 0)
(-473.952 0 0)
(-473.952 0 0)
(-473.952 0 0)
(-473.952 0 0)
(-473.952 0 0)
(-473.952 0 0)
(-473.952 0 0)
(-473.952 0 0)
(-473.952 0 0)
(-473.952 0 0)
(-473.952 0 0)
(-473.952 0 0)
(-473.952 0 0)
(-473.952 0 0)
(-473.952 0 0)
(-473.952 0 0)
(-473.952 0 0)
(-473.952 0 0)
(-473.952 0 0)
(-473.952 0 0)
(-473.952 0 0)
(-473.952 0 0)
(-473.952 0 0)
(-473.952 0 0)
(-473.952 0 0)
(-473.952 0 0)
(-473.952 0 0)
(-473.952 0 0)
(-473.952 0 0)
(-473.952 0 0)
(-473.951 0 0)
(-473.95 0 0)
(-473.949 0 0)
(-473.947 0 0)
(-473.944 0 0)
(-473.941 0 0)
(-473.946 0 0)
(-473.976 0 0)
(-473.698 0 0)
(-472.888 0 0)
(-477.337 0 0)
(-471.511 0 0)
(-346.967 0 0)
(-458.254 0 0)
(-427.951 0 0)
(-452.652 0 0)
(-461.767 0 0)
(-465.51 0 0)
(-468.181 0 0)
(-470.222 0 0)
(-471.664 0 0)
(-472.634 0 0)
(-473.272 0 0)
(-473.685 0 0)
(-473.951 0 0)
(-474.119 0 0)
(-474.224 0 0)
(-474.29 0 0)
(-474.331 0 0)
(-474.356 0 0)
(-474.371 0 0)
(-474.38 0 0)
(-474.385 0 0)
(-474.389 0 0)
(-474.391 0 0)
(-474.392 0 0)
(-474.393 0 0)
(-474.393 0 0)
(-474.393 0 0)
(-474.393 0 0)
(-474.393 0 0)
(-474.393 0 0)
(-474.393 0 0)
(-474.394 0 0)
(-474.394 0 0)
(-474.394 0 0)
(-474.394 0 0)
(-474.394 0 0)
(-474.394 0 0)
(-474.394 0 0)
(-474.394 0 0)
(-474.394 0 0)
(-474.394 0 0)
(-474.394 0 0)
(-474.394 0 0)
(-474.394 0 0)
(-474.394 0 0)
(-474.394 0 0)
(-474.394 0 0)
(-474.394 0 0)
(-474.394 0 0)
(-474.394 0 0)
(-474.394 0 0)
(-474.394 0 0)
(-474.394 0 0)
(-474.394 0 0)
(-474.394 0 0)
(-474.394 0 0)
(-474.394 0 0)
(-474.394 0 0)
(-474.394 0 0)
(-474.394 0 0)
(-474.394 0 0)
(-474.394 0 0)
(-474.394 0 0)
(-474.394 0 0)
(-474.394 0 0)
(-474.394 0 0)
(-474.394 0 0)
(-474.394 0 0)
(-474.394 0 0)
(-474.394 0 0)
(-474.394 0 0)
(-474.394 0 0)
(-474.394 0 0)
(-474.394 0 0)
(-474.394 0 0)
(-474.394 0 0)
(-474.394 0 0)
(-474.394 0 0)
(-474.394 0 0)
(-474.394 0 0)
(-474.393 0 0)
(-474.393 0 0)
(-474.393 0 0)
(-474.393 0 0)
(-474.393 0 0)
(-474.393 0 0)
(-474.393 0 0)
(-474.393 0 0)
(-474.392 0 0)
(-474.391 0 0)
(-474.39 0 0)
(-474.387 0 0)
(-474.384 0 0)
(-474.38 0 0)
(-474.384 0 0)
(-474.412 0 0)
(-474.132 0 0)
(-473.327 0 0)
(-477.79 0 0)
(-471.968 0 0)
(-345.992 0 0)
(-455.964 0 0)
(-425.501 0 0)
(-450.544 0 0)
(-460.108 0 0)
(-464.291 0 0)
(-467.356 0 0)
(-469.719 0 0)
(-471.405 0 0)
(-472.549 0 0)
(-473.305 0 0)
(-473.798 0 0)
(-474.114 0 0)
(-474.315 0 0)
(-474.441 0 0)
(-474.52 0 0)
(-474.569 0 0)
(-474.598 0 0)
(-474.616 0 0)
(-474.627 0 0)
(-474.634 0 0)
(-474.638 0 0)
(-474.64 0 0)
(-474.642 0 0)
(-474.642 0 0)
(-474.643 0 0)
(-474.643 0 0)
(-474.643 0 0)
(-474.643 0 0)
(-474.643 0 0)
(-474.643 0 0)
(-474.644 0 0)
(-474.644 0 0)
(-474.644 0 0)
(-474.644 0 0)
(-474.644 0 0)
(-474.644 0 0)
(-474.644 0 0)
(-474.644 0 0)
(-474.644 0 0)
(-474.644 0 0)
(-474.644 0 0)
(-474.644 0 0)
(-474.644 0 0)
(-474.644 0 0)
(-474.644 0 0)
(-474.644 0 0)
(-474.644 0 0)
(-474.644 0 0)
(-474.644 0 0)
(-474.644 0 0)
(-474.644 0 0)
(-474.644 0 0)
(-474.644 0 0)
(-474.644 0 0)
(-474.644 0 0)
(-474.644 0 0)
(-474.644 0 0)
(-474.644 0 0)
(-474.644 0 0)
(-474.644 0 0)
(-474.644 0 0)
(-474.644 0 0)
(-474.644 0 0)
(-474.644 0 0)
(-474.644 0 0)
(-474.644 0 0)
(-474.644 0 0)
(-474.644 0 0)
(-474.644 0 0)
(-474.644 0 0)
(-474.644 0 0)
(-474.644 0 0)
(-474.644 0 0)
(-474.644 0 0)
(-474.644 0 0)
(-474.644 0 0)
(-474.644 0 0)
(-474.644 0 0)
(-474.644 0 0)
(-474.644 0 0)
(-474.643 0 0)
(-474.643 0 0)
(-474.643 0 0)
(-474.643 0 0)
(-474.643 0 0)
(-474.643 0 0)
(-474.643 0 0)
(-474.642 0 0)
(-474.641 0 0)
(-474.639 0 0)
(-474.636 0 0)
(-474.632 0 0)
(-474.627 0 0)
(-474.631 0 0)
(-474.658 0 0)
(-474.377 0 0)
(-473.575 0 0)
(-478.049 0 0)
(-472.23 0 0)
(-345.256 0 0)
(-454.212 0 0)
(-423.574 0 0)
(-448.833 0 0)
(-458.721 0 0)
(-463.241 0 0)
(-466.615 0 0)
(-469.238 0 0)
(-471.123 0 0)
(-472.41 0 0)
(-473.265 0 0)
(-473.823 0 0)
(-474.183 0 0)
(-474.411 0 0)
(-474.554 0 0)
(-474.643 0 0)
(-474.698 0 0)
(-474.732 0 0)
(-474.753 0 0)
(-474.765 0 0)
(-474.773 0 0)
(-474.777 0 0)
(-474.78 0 0)
(-474.781 0 0)
(-474.782 0 0)
(-474.783 0 0)
(-474.783 0 0)
(-474.783 0 0)
(-474.783 0 0)
(-474.784 0 0)
(-474.784 0 0)
(-474.784 0 0)
(-474.784 0 0)
(-474.784 0 0)
(-474.784 0 0)
(-474.784 0 0)
(-474.784 0 0)
(-474.784 0 0)
(-474.784 0 0)
(-474.784 0 0)
(-474.784 0 0)
(-474.784 0 0)
(-474.784 0 0)
(-474.784 0 0)
(-474.784 0 0)
(-474.784 0 0)
(-474.784 0 0)
(-474.784 0 0)
(-474.784 0 0)
(-474.784 0 0)
(-474.784 0 0)
(-474.784 0 0)
(-474.784 0 0)
(-474.784 0 0)
(-474.784 0 0)
(-474.784 0 0)
(-474.784 0 0)
(-474.784 0 0)
(-474.784 0 0)
(-474.784 0 0)
(-474.784 0 0)
(-474.784 0 0)
(-474.784 0 0)
(-474.784 0 0)
(-474.784 0 0)
(-474.784 0 0)
(-474.784 0 0)
(-474.784 0 0)
(-474.784 0 0)
(-474.784 0 0)
(-474.784 0 0)
(-474.784 0 0)
(-474.784 0 0)
(-474.784 0 0)
(-474.784 0 0)
(-474.784 0 0)
(-474.784 0 0)
(-474.784 0 0)
(-474.784 0 0)
(-474.784 0 0)
(-474.784 0 0)
(-474.784 0 0)
(-474.784 0 0)
(-474.783 0 0)
(-474.783 0 0)
(-474.783 0 0)
(-474.783 0 0)
(-474.783 0 0)
(-474.782 0 0)
(-474.781 0 0)
(-474.779 0 0)
(-474.776 0 0)
(-474.771 0 0)
(-474.766 0 0)
(-474.768 0 0)
(-474.794 0 0)
(-474.513 0 0)
(-473.715 0 0)
(-478.197 0 0)
(-472.379 0 0)
(-344.726 0 0)
(-452.94 0 0)
(-422.149 0 0)
(-447.539 0 0)
(-457.652 0 0)
(-462.415 0 0)
(-466.019 0 0)
(-468.837 0 0)
(-470.874 0 0)
(-472.271 0 0)
(-473.203 0 0)
(-473.811 0 0)
(-474.204 0 0)
(-474.453 0 0)
(-474.61 0 0)
(-474.707 0 0)
(-474.767 0 0)
(-474.804 0 0)
(-474.827 0 0)
(-474.84 0 0)
(-474.848 0 0)
(-474.853 0 0)
(-474.856 0 0)
(-474.858 0 0)
(-474.859 0 0)
(-474.86 0 0)
(-474.86 0 0)
(-474.86 0 0)
(-474.86 0 0)
(-474.86 0 0)
(-474.86 0 0)
(-474.86 0 0)
(-474.86 0 0)
(-474.861 0 0)
(-474.861 0 0)
(-474.861 0 0)
(-474.861 0 0)
(-474.861 0 0)
(-474.861 0 0)
(-474.861 0 0)
(-474.861 0 0)
(-474.861 0 0)
(-474.861 0 0)
(-474.861 0 0)
(-474.861 0 0)
(-474.861 0 0)
(-474.861 0 0)
(-474.861 0 0)
(-474.861 0 0)
(-474.861 0 0)
(-474.861 0 0)
(-474.861 0 0)
(-474.861 0 0)
(-474.861 0 0)
(-474.861 0 0)
(-474.861 0 0)
(-474.861 0 0)
(-474.861 0 0)
(-474.861 0 0)
(-474.861 0 0)
(-474.861 0 0)
(-474.861 0 0)
(-474.861 0 0)
(-474.861 0 0)
(-474.861 0 0)
(-474.861 0 0)
(-474.861 0 0)
(-474.861 0 0)
(-474.861 0 0)
(-474.861 0 0)
(-474.861 0 0)
(-474.861 0 0)
(-474.861 0 0)
(-474.861 0 0)
(-474.861 0 0)
(-474.861 0 0)
(-474.861 0 0)
(-474.861 0 0)
(-474.861 0 0)
(-474.86 0 0)
(-474.86 0 0)
(-474.86 0 0)
(-474.86 0 0)
(-474.86 0 0)
(-474.86 0 0)
(-474.86 0 0)
(-474.86 0 0)
(-474.859 0 0)
(-474.859 0 0)
(-474.857 0 0)
(-474.855 0 0)
(-474.852 0 0)
(-474.847 0 0)
(-474.841 0 0)
(-474.843 0 0)
(-474.869 0 0)
(-474.587 0 0)
(-473.792 0 0)
(-478.279 0 0)
(-472.462 0 0)
(-344.379 0 0)
(-452.103 0 0)
(-421.201 0 0)
(-446.668 0 0)
(-456.922 0 0)
(-461.844 0 0)
(-465.602 0 0)
(-468.551 0 0)
(-470.692 0 0)
(-472.164 0 0)
(-473.147 0 0)
(-473.791 0 0)
(-474.205 0 0)
(-474.469 0 0)
(-474.635 0 0)
(-474.738 0 0)
(-474.802 0 0)
(-474.841 0 0)
(-474.865 0 0)
(-474.879 0 0)
(-474.888 0 0)
(-474.893 0 0)
(-474.896 0 0)
(-474.898 0 0)
(-474.899 0 0)
(-474.9 0 0)
(-474.9 0 0)
(-474.9 0 0)
(-474.9 0 0)
(-474.9 0 0)
(-474.9 0 0)
(-474.9 0 0)
(-474.901 0 0)
(-474.901 0 0)
(-474.901 0 0)
(-474.901 0 0)
(-474.901 0 0)
(-474.901 0 0)
(-474.901 0 0)
(-474.901 0 0)
(-474.901 0 0)
(-474.901 0 0)
(-474.901 0 0)
(-474.901 0 0)
(-474.901 0 0)
(-474.901 0 0)
(-474.901 0 0)
(-474.901 0 0)
(-474.901 0 0)
(-474.901 0 0)
(-474.901 0 0)
(-474.901 0 0)
(-474.901 0 0)
(-474.901 0 0)
(-474.901 0 0)
(-474.901 0 0)
(-474.901 0 0)
(-474.901 0 0)
(-474.901 0 0)
(-474.901 0 0)
(-474.901 0 0)
(-474.901 0 0)
(-474.901 0 0)
(-474.901 0 0)
(-474.901 0 0)
(-474.901 0 0)
(-474.901 0 0)
(-474.901 0 0)
(-474.901 0 0)
(-474.901 0 0)
(-474.901 0 0)
(-474.901 0 0)
(-474.901 0 0)
(-474.901 0 0)
(-474.901 0 0)
(-474.901 0 0)
(-474.901 0 0)
(-474.901 0 0)
(-474.901 0 0)
(-474.901 0 0)
(-474.9 0 0)
(-474.9 0 0)
(-474.9 0 0)
(-474.9 0 0)
(-474.9 0 0)
(-474.9 0 0)
(-474.9 0 0)
(-474.899 0 0)
(-474.899 0 0)
(-474.897 0 0)
(-474.895 0 0)
(-474.892 0 0)
(-474.886 0 0)
(-474.88 0 0)
(-474.882 0 0)
(-474.907 0 0)
(-474.625 0 0)
(-473.833 0 0)
(-478.323 0 0)
(-472.505 0 0)
(-344.208 0 0)
(-451.689 0 0)
(-420.73 0 0)
(-446.231 0 0)
(-456.554 0 0)
(-461.554 0 0)
(-465.388 0 0)
(-468.404 0 0)
(-470.596 0 0)
(-472.106 0 0)
(-473.115 0 0)
(-473.777 0 0)
(-474.203 0 0)
(-474.474 0 0)
(-474.645 0 0)
(-474.751 0 0)
(-474.816 0 0)
(-474.856 0 0)
(-474.881 0 0)
(-474.896 0 0)
(-474.905 0 0)
(-474.91 0 0)
(-474.913 0 0)
(-474.915 0 0)
(-474.916 0 0)
(-474.917 0 0)
(-474.917 0 0)
(-474.917 0 0)
(-474.917 0 0)
(-474.917 0 0)
(-474.917 0 0)
(-474.918 0 0)
(-474.918 0 0)
(-474.918 0 0)
(-474.918 0 0)
(-474.918 0 0)
(-474.918 0 0)
(-474.918 0 0)
(-474.918 0 0)
(-474.918 0 0)
(-474.918 0 0)
(-474.918 0 0)
(-474.918 0 0)
(-474.918 0 0)
(-474.918 0 0)
(-474.918 0 0)
(-474.918 0 0)
(-474.918 0 0)
(-474.918 0 0)
(-474.918 0 0)
(-474.918 0 0)
(-474.918 0 0)
(-474.918 0 0)