/*--------------------------------*- C++ -*----------------------------------*\
| =========                 |                                                 |
| \\      /  F ield         | foam-extend: Open Source CFD                    |
|  \\    /   O peration     | Version:     5.0                                |
|   \\  /    A nd           | Web:         http://www.foam-extend.org         |
|    \\/     M anipulation  |                                                 |
\*---------------------------------------------------------------------------*/
FoamFile
{
    version     2.0;
    format      ascii;
    class       volVectorField;
    location    "0.01";
    object      currentDensity;
}
// * * * * * * * * * * * * * * * * * * * * * * * * * * * * * * * * * * * * * //

dimensions      [0 -2 0 0 0 1 0];

internalField   nonuniform List<vector> 
4000
(
(0 0 5.3308)
(0 0 5.92932)
(0 0 4.41725)
(0 0 4.67416)
(0 0 4.61973)
(0 0 4.48993)
(0 0 4.39276)
(0 0 4.32907)
(0 0 4.28696)
(0 0 4.25876)
(0 0 4.23993)
(0 0 4.22752)
(0 0 4.21943)
(0 0 4.21422)
(0 0 4.21091)
(0 0 4.20883)
(0 0 4.20753)
(0 0 4.20672)
(0 0 4.20623)
(0 0 4.20593)
(0 0 4.20574)
(0 0 4.20563)
(0 0 4.20557)
(0 0 4.20553)
(0 0 4.2055)
(0 0 4.20549)
(0 0 4.20548)
(0 0 4.20548)
(0 0 4.20547)
(0 0 4.20547)
(0 0 4.20547)
(0 0 4.20547)
(0 0 4.20547)
(0 0 4.20547)
(0 0 4.20547)
(0 0 4.20547)
(0 0 4.20547)
(0 0 4.20547)
(0 0 4.20547)
(0 0 4.20547)
(0 0 4.20547)
(0 0 4.20547)
(0 0 4.20547)
(0 0 4.20547)
(0 0 4.20547)
(0 0 4.20547)
(0 0 4.20547)
(0 0 4.20547)
(0 0 4.20547)
(0 0 4.20547)
(0 0 4.20547)
(0 0 4.20547)
(0 0 4.20547)
(0 0 4.20547)
(0 0 4.20547)
(0 0 4.20547)
(0 0 4.20547)
(0 0 4.20547)
(0 0 4.20547)
(0 0 4.20547)
(0 0 4.20547)
(0 0 4.20547)
(0 0 4.20547)
(0 0 4.20547)
(0 0 4.20547)
(0 0 4.20547)
(0 0 4.20547)
(0 0 4.20547)
(0 0 4.20547)
(0 0 4.20547)
(0 0 4.20547)
(0 0 4.20547)
(0 0 4.20547)
(0 0 4.20547)
(0 0 4.20547)
(0 0 4.20547)
(0 0 4.20547)
(0 0 4.20547)
(0 0 4.20547)
(0 0 4.20547)
(0 0 4.20547)
(0 0 4.20547)
(0 0 4.20547)
(0 0 4.20547)
(0 0 4.20547)
(0 0 4.20548)
(0 0 4.20548)
(0 0 4.2055)
(0 0 4.20552)
(0 0 4.20555)
(0 0 4.20561)
(0 0 4.20572)
(0 0 4.2059)
(0 0 4.20626)
(0 0 4.20708)
(0 0 4.20861)
(0 0 4.20346)
(0 0 4.17901)
(0 0 4.24787)
(0 0 4.33661)
(0 0 9.9292)
(0 0 10.2672)
(0 0 6.69825)
(0 0 6.66387)
(0 0 6.46907)
(0 0 6.21354)
(0 0 6.01776)
(0 0 5.88348)
(0 0 5.79284)
(0 0 5.7319)
(0 0 5.69133)
(0 0 5.66467)
(0 0 5.64736)
(0 0 5.63627)
(0 0 5.62924)
(0 0 5.62482)
(0 0 5.62208)
(0 0 5.62038)
(0 0 5.61935)
(0 0 5.61872)
(0 0 5.61834)
(0 0 5.61811)
(0 0 5.61797)
(0 0 5.61789)
(0 0 5.61784)
(0 0 5.61781)
(0 0 5.6178)
(0 0 5.61779)
(0 0 5.61778)
(0 0 5.61778)
(0 0 5.61778)
(0 0 5.61778)
(0 0 5.61778)
(0 0 5.61778)
(0 0 5.61778)
(0 0 5.61778)
(0 0 5.61778)
(0 0 5.61778)
(0 0 5.61778)
(0 0 5.61778)
(0 0 5.61778)
(0 0 5.61778)
(0 0 5.61778)
(0 0 5.61778)
(0 0 5.61778)
(0 0 5.61778)
(0 0 5.61778)
(0 0 5.61778)
(0 0 5.61778)
(0 0 5.61778)
(0 0 5.61778)
(0 0 5.61778)
(0 0 5.61778)
(0 0 5.61778)
(0 0 5.61778)
(0 0 5.61778)
(0 0 5.61778)
(0 0 5.61778)
(0 0 5.61778)
(0 0 5.61778)
(0 0 5.61778)
(0 0 5.61778)
(0 0 5.61778)
(0 0 5.61778)
(0 0 5.61778)
(0 0 5.61778)
(0 0 5.61778)
(0 0 5.61778)
(0 0 5.61778)
(0 0 5.61778)
(0 0 5.61778)
(0 0 5.61778)
(0 0 5.61778)
(0 0 5.61778)
(0 0 5.61777)
(0 0 5.61777)
(0 0 5.61777)
(0 0 5.61777)
(0 0 5.61777)
(0 0 5.61777)
(0 0 5.61777)
(0 0 5.61777)
(0 0 5.61777)
(0 0 5.61777)
(0 0 5.61778)
(0 0 5.61779)
(0 0 5.6178)
(0 0 5.61782)
(0 0 5.61786)
(0 0 5.61793)
(0 0 5.61805)
(0 0 5.61824)
(0 0 5.61856)
(0 0 5.61911)
(0 0 5.62018)
(0 0 5.62172)
(0 0 5.61226)
(0 0 5.58088)
(0 0 5.74199)
(0 0 5.66781)
(0 0 13.7644)
(0 0 16.0106)
(0 0 11.898)
(0 0 11.5186)
(0 0 11.1449)
(0 0 10.8062)
(0 0 10.5672)
(0 0 10.4076)
(0 0 10.3014)
(0 0 10.2309)
(0 0 10.1844)
(0 0 10.154)
(0 0 10.1345)
(0 0 10.1221)
(0 0 10.1142)
(0 0 10.1093)
(0 0 10.1063)
(0 0 10.1044)
(0 0 10.1033)
(0 0 10.1026)
(0 0 10.1022)
(0 0 10.1019)
(0 0 10.1018)
(0 0 10.1017)
(0 0 10.1016)
(0 0 10.1016)
(0 0 10.1016)
(0 0 10.1016)
(0 0 10.1016)
(0 0 10.1016)
(0 0 10.1016)
(0 0 10.1016)
(0 0 10.1016)
(0 0 10.1016)
(0 0 10.1016)
(0 0 10.1016)
(0 0 10.1016)
(0 0 10.1016)
(0 0 10.1016)
(0 0 10.1016)
(0 0 10.1016)
(0 0 10.1016)
(0 0 10.1016)
(0 0 10.1016)
(0 0 10.1016)
(0 0 10.1016)
(0 0 10.1016)
(0 0 10.1016)
(0 0 10.1016)
(0 0 10.1016)
(0 0 10.1016)
(0 0 10.1016)
(0 0 10.1016)
(0 0 10.1016)
(0 0 10.1016)
(0 0 10.1016)
(0 0 10.1016)
(0 0 10.1016)
(0 0 10.1016)
(0 0 10.1016)
(0 0 10.1016)
(0 0 10.1016)
(0 0 10.1016)
(0 0 10.1016)
(0 0 10.1016)
(0 0 10.1016)
(0 0 10.1016)
(0 0 10.1016)
(0 0 10.1016)
(0 0 10.1016)
(0 0 10.1016)
(0 0 10.1016)
(0 0 10.1016)
(0 0 10.1016)
(0 0 10.1016)
(0 0 10.1016)
(0 0 10.1016)
(0 0 10.1016)
(0 0 10.1016)
(0 0 10.1016)
(0 0 10.1016)
(0 0 10.1016)
(0 0 10.1016)
(0 0 10.1016)
(0 0 10.1016)
(0 0 10.1016)
(0 0 10.1016)
(0 0 10.1016)
(0 0 10.1017)
(0 0 10.1017)
(0 0 10.1018)
(0 0 10.102)
(0 0 10.1024)
(0 0 10.1029)
(0 0 10.1039)
(0 0 10.1057)
(0 0 10.0969)
(0 0 10.0676)
(0 0 10.2611)
(0 0 9.98211)
(0 0 16.265)
(0 0 20.5393)
(0 0 16.7393)
(0 0 16.3297)
(0 0 15.8911)
(0 0 15.5249)
(0 0 15.278)
(0 0 15.1169)
(0 0 15.0109)
(0 0 14.941)
(0 0 14.8953)
(0 0 14.8656)
(0 0 14.8467)
(0 0 14.8346)
(0 0 14.8271)
(0 0 14.8224)
(0 0 14.8195)
(0 0 14.8177)
(0 0 14.8166)
(0 0 14.8159)
(0 0 14.8155)
(0 0 14.8153)
(0 0 14.8152)
(0 0 14.8151)
(0 0 14.815)
(0 0 14.815)
(0 0 14.815)
(0 0 14.815)
(0 0 14.815)
(0 0 14.815)
(0 0 14.815)
(0 0 14.815)
(0 0 14.815)
(0 0 14.815)
(0 0 14.815)
(0 0 14.815)
(0 0 14.815)
(0 0 14.815)
(0 0 14.815)
(0 0 14.815)
(0 0 14.815)
(0 0 14.815)
(0 0 14.815)
(0 0 14.815)
(0 0 14.815)
(0 0 14.815)
(0 0 14.815)
(0 0 14.815)
(0 0 14.815)
(0 0 14.815)
(0 0 14.815)
(0 0 14.815)
(0 0 14.815)
(0 0 14.815)
(0 0 14.815)
(0 0 14.815)
(0 0 14.815)
(0 0 14.815)
(0 0 14.815)
(0 0 14.815)
(0 0 14.815)
(0 0 14.815)
(0 0 14.815)
(0 0 14.815)
(0 0 14.815)
(0 0 14.815)
(0 0 14.815)
(0 0 14.815)
(0 0 14.815)
(0 0 14.815)
(0 0 14.815)
(0 0 14.815)
(0 0 14.815)
(0 0 14.815)
(0 0 14.815)
(0 0 14.815)
(0 0 14.815)
(0 0 14.815)
(0 0 14.815)
(0 0 14.815)
(0 0 14.815)
(0 0 14.815)
(0 0 14.815)
(0 0 14.815)
(0 0 14.815)
(0 0 14.815)
(0 0 14.815)
(0 0 14.815)
(0 0 14.815)
(0 0 14.8151)
(0 0 14.8152)
(0 0 14.8154)
(0 0 14.8157)
(0 0 14.8161)
(0 0 14.8172)
(0 0 14.8194)
(0 0 14.8114)
(0 0 14.7818)
(0 0 14.982)
(0 0 14.6699)
(0 0 17.4632)
(0 0 22.894)
(0 0 19.6373)
(0 0 19.4284)
(0 0 19.0408)
(0 0 18.6964)
(0 0 18.4645)
(0 0 18.3138)
(0 0 18.2148)
(0 0 18.1496)
(0 0 18.107)
(0 0 18.0795)
(0 0 18.0619)
(0 0 18.0507)
(0 0 18.0438)
(0 0 18.0394)
(0 0 18.0368)
(0 0 18.0351)
(0 0 18.0341)
(0 0 18.0335)
(0 0 18.0332)
(0 0 18.033)
(0 0 18.0328)
(0 0 18.0327)
(0 0 18.0327)
(0 0 18.0327)
(0 0 18.0327)
(0 0 18.0327)
(0 0 18.0326)
(0 0 18.0326)
(0 0 18.0326)
(0 0 18.0326)
(0 0 18.0326)
(0 0 18.0326)
(0 0 18.0326)
(0 0 18.0326)
(0 0 18.0326)
(0 0 18.0326)
(0 0 18.0326)
(0 0 18.0326)
(0 0 18.0326)
(0 0 18.0326)
(0 0 18.0326)
(0 0 18.0326)
(0 0 18.0326)
(0 0 18.0326)
(0 0 18.0326)
(0 0 18.0326)
(0 0 18.0326)
(0 0 18.0326)
(0 0 18.0326)
(0 0 18.0326)
(0 0 18.0326)
(0 0 18.0326)
(0 0 18.0326)
(0 0 18.0326)
(0 0 18.0326)
(0 0 18.0326)
(0 0 18.0326)
(0 0 18.0326)
(0 0 18.0326)
(0 0 18.0326)
(0 0 18.0326)
(0 0 18.0326)
(0 0 18.0326)
(0 0 18.0326)
(0 0 18.0326)
(0 0 18.0326)
(0 0 18.0326)
(0 0 18.0326)
(0 0 18.0326)
(0 0 18.0326)
(0 0 18.0326)
(0 0 18.0326)
(0 0 18.0326)
(0 0 18.0326)
(0 0 18.0326)
(0 0 18.0326)
(0 0 18.0326)
(0 0 18.0326)
(0 0 18.0326)
(0 0 18.0326)
(0 0 18.0326)
(0 0 18.0326)
(0 0 18.0326)
(0 0 18.0327)
(0 0 18.0327)
(0 0 18.0327)
(0 0 18.0327)
(0 0 18.0328)
(0 0 18.0329)
(0 0 18.033)
(0 0 18.0333)
(0 0 18.0337)
(0 0 18.0347)
(0 0 18.0371)
(0 0 18.0288)
(0 0 17.9964)
(0 0 18.2006)
(0 0 17.8825)
(0 0 17.9641)
(0 0 23.9865)
(0 0 21.2576)
(0 0 21.3239)
(0 0 21.0437)
(0 0 20.7505)
(0 0 20.5488)
(0 0 20.417)
(0 0 20.33)
(0 0 20.2725)
(0 0 20.2348)
(0 0 20.2104)
(0 0 20.1949)
(0 0 20.185)
(0 0 20.1789)
(0 0 20.1751)
(0 0 20.1727)
(0 0 20.1713)
(0 0 20.1704)
(0 0 20.1699)
(0 0 20.1696)
(0 0 20.1694)
(0 0 20.1693)
(0 0 20.1692)
(0 0 20.1691)
(0 0 20.1691)
(0 0 20.1691)
(0 0 20.1691)
(0 0 20.1691)
(0 0 20.1691)
(0 0 20.1691)
(0 0 20.1691)
(0 0 20.1691)
(0 0 20.1691)
(0 0 20.1691)
(0 0 20.1691)
(0 0 20.1691)
(0 0 20.1691)
(0 0 20.1691)
(0 0 20.1691)
(0 0 20.1691)
(0 0 20.1691)
(0 0 20.1691)
(0 0 20.1691)
(0 0 20.1691)
(0 0 20.1691)
(0 0 20.1691)
(0 0 20.1691)
(0 0 20.1691)
(0 0 20.1691)
(0 0 20.1691)
(0 0 20.1691)
(0 0 20.1691)
(0 0 20.1691)
(0 0 20.1691)
(0 0 20.1691)
(0 0 20.1691)
(0 0 20.1691)
(0 0 20.1691)
(0 0 20.1691)
(0 0 20.1691)
(0 0 20.1691)
(0 0 20.1691)
(0 0 20.1691)
(0 0 20.1691)
(0 0 20.1691)
(0 0 20.1691)
(0 0 20.1691)
(0 0 20.1691)
(0 0 20.1691)
(0 0 20.1691)
(0 0 20.1691)
(0 0 20.1691)
(0 0 20.1691)
(0 0 20.1691)
(0 0 20.1691)
(0 0 20.1691)
(0 0 20.1691)
(0 0 20.1691)
(0 0 20.1691)
(0 0 20.1691)
(0 0 20.1691)
(0 0 20.1691)
(0 0 20.1691)
(0 0 20.1691)
(0 0 20.1691)
(0 0 20.1691)
(0 0 20.1691)
(0 0 20.1692)
(0 0 20.1692)
(0 0 20.1693)
(0 0 20.1694)
(0 0 20.1696)
(0 0 20.17)
(0 0 20.1709)
(0 0 20.1734)
(0 0 20.1643)
(0 0 20.1289)
(0 0 20.3363)
(0 0 20.0217)
(0 0 18.1041)
(0 0 24.3689)
(0 0 22.0649)
(0 0 22.4047)
(0 0 22.2515)
(0 0 22.0241)
(0 0 21.8618)
(0 0 21.7546)
(0 0 21.6831)
(0 0 21.6354)
(0 0 21.604)
(0 0 21.5837)
(0 0 21.5706)
(0 0 21.5624)
(0 0 21.5573)
(0 0 21.5541)
(0 0 21.5521)
(0 0 21.5509)
(0 0 21.5502)
(0 0 21.5498)
(0 0 21.5495)
(0 0 21.5493)
(0 0 21.5493)
(0 0 21.5492)
(0 0 21.5492)
(0 0 21.5491)
(0 0 21.5491)
(0 0 21.5491)
(0 0 21.5491)
(0 0 21.5491)
(0 0 21.5491)
(0 0 21.5491)
(0 0 21.5491)
(0 0 21.5491)
(0 0 21.5491)
(0 0 21.5491)
(0 0 21.5491)
(0 0 21.5491)
(0 0 21.5491)
(0 0 21.5491)
(0 0 21.5491)
(0 0 21.5491)
(0 0 21.5491)
(0 0 21.5491)
(0 0 21.5491)
(0 0 21.5491)
(0 0 21.5491)
(0 0 21.5491)
(0 0 21.5491)
(0 0 21.5491)
(0 0 21.5491)
(0 0 21.5491)
(0 0 21.5491)
(0 0 21.5491)
(0 0 21.5491)
(0 0 21.5491)
(0 0 21.5491)
(0 0 21.5491)
(0 0 21.5491)
(0 0 21.5491)
(0 0 21.5491)
(0 0 21.5491)
(0 0 21.5491)
(0 0 21.5491)
(0 0 21.5491)
(0 0 21.5491)
(0 0 21.5491)
(0 0 21.5491)
(0 0 21.5491)
(0 0 21.5491)
(0 0 21.5491)
(0 0 21.5491)
(0 0 21.5491)
(0 0 21.5491)
(0 0 21.5491)
(0 0 21.5491)
(0 0 21.5491)
(0 0 21.5491)
(0 0 21.5491)
(0 0 21.5491)
(0 0 21.5491)
(0 0 21.5491)
(0 0 21.5491)
(0 0 21.5491)
(0 0 21.5491)
(0 0 21.5491)
(0 0 21.5491)
(0 0 21.5492)
(0 0 21.5492)
(0 0 21.5492)
(0 0 21.5493)
(0 0 21.5494)
(0 0 21.5495)
(0 0 21.5498)
(0 0 21.5507)
(0 0 21.5531)
(0 0 21.543)
(0 0 21.5053)
(0 0 21.7156)
(0 0 21.4067)
(0 0 18.0689)
(0 0 24.3736)
(0 0 22.379)
(0 0 22.9572)
(0 0 22.9301)
(0 0 22.7733)
(0 0 22.6548)
(0 0 22.5756)
(0 0 22.522)
(0 0 22.4857)
(0 0 22.4616)
(0 0 22.4459)
(0 0 22.4359)
(0 0 22.4295)
(0 0 22.4255)
(0 0 22.4231)
(0 0 22.4216)
(0 0 22.4206)
(0 0 22.4201)
(0 0 22.4197)
(0 0 22.4195)
(0 0 22.4194)
(0 0 22.4194)
(0 0 22.4193)
(0 0 22.4193)
(0 0 22.4193)
(0 0 22.4193)
(0 0 22.4193)
(0 0 22.4193)
(0 0 22.4193)
(0 0 22.4193)
(0 0 22.4193)
(0 0 22.4193)
(0 0 22.4193)
(0 0 22.4193)
(0 0 22.4193)
(0 0 22.4193)
(0 0 22.4193)
(0 0 22.4193)
(0 0 22.4193)
(0 0 22.4193)
(0 0 22.4193)
(0 0 22.4193)
(0 0 22.4193)
(0 0 22.4193)
(0 0 22.4193)
(0 0 22.4193)
(0 0 22.4193)
(0 0 22.4193)
(0 0 22.4193)
(0 0 22.4193)
(0 0 22.4193)
(0 0 22.4193)
(0 0 22.4193)
(0 0 22.4193)
(0 0 22.4193)
(0 0 22.4193)
(0 0 22.4193)
(0 0 22.4193)
(0 0 22.4193)
(0 0 22.4193)
(0 0 22.4193)
(0 0 22.4193)
(0 0 22.4193)
(0 0 22.4193)
(0 0 22.4193)
(0 0 22.4193)
(0 0 22.4193)
(0 0 22.4193)
(0 0 22.4193)
(0 0 22.4193)
(0 0 22.4193)
(0 0 22.4193)
(0 0 22.4193)
(0 0 22.4193)
(0 0 22.4193)
(0 0 22.4193)
(0 0 22.4193)
(0 0 22.4193)
(0 0 22.4193)
(0 0 22.4193)
(0 0 22.4193)
(0 0 22.4193)
(0 0 22.4193)
(0 0 22.4193)
(0 0 22.4193)
(0 0 22.4193)
(0 0 22.4193)
(0 0 22.4193)
(0 0 22.4193)
(0 0 22.4194)
(0 0 22.4194)
(0 0 22.4196)
(0 0 22.4198)
(0 0 22.4205)
(0 0 22.4229)
(0 0 22.4118)
(0 0 22.3725)
(0 0 22.5854)
(0 0 22.2819)
(0 0 17.9592)
(0 0 24.1963)
(0 0 22.4115)
(0 0 23.1828)
(0 0 23.2703)
(0 0 23.1827)
(0 0 23.1091)
(0 0 23.0595)
(0 0 23.0251)
(0 0 23.0013)
(0 0 22.9852)
(0 0 22.9746)
(0 0 22.9678)
(0 0 22.9635)
(0 0 22.9608)
(0 0 22.9592)
(0 0 22.9581)
(0 0 22.9575)
(0 0 22.9571)
(0 0 22.9569)
(0 0 22.9568)
(0 0 22.9567)
(0 0 22.9567)
(0 0 22.9566)
(0 0 22.9566)
(0 0 22.9566)
(0 0 22.9566)
(0 0 22.9566)
(0 0 22.9566)
(0 0 22.9566)
(0 0 22.9566)
(0 0 22.9566)
(0 0 22.9566)
(0 0 22.9566)
(0 0 22.9566)
(0 0 22.9566)
(0 0 22.9566)
(0 0 22.9566)
(0 0 22.9566)
(0 0 22.9566)
(0 0 22.9566)
(0 0 22.9566)
(0 0 22.9566)
(0 0 22.9566)
(0 0 22.9566)
(0 0 22.9566)
(0 0 22.9566)
(0 0 22.9566)
(0 0 22.9566)
(0 0 22.9566)
(0 0 22.9566)
(0 0 22.9566)
(0 0 22.9566)
(0 0 22.9566)
(0 0 22.9566)
(0 0 22.9566)
(0 0 22.9566)
(0 0 22.9566)
(0 0 22.9566)
(0 0 22.9566)
(0 0 22.9566)
(0 0 22.9566)
(0 0 22.9566)
(0 0 22.9566)
(0 0 22.9566)
(0 0 22.9566)
(0 0 22.9566)
(0 0 22.9566)
(0 0 22.9566)
(0 0 22.9566)
(0 0 22.9566)
(0 0 22.9566)
(0 0 22.9566)
(0 0 22.9566)
(0 0 22.9566)
(0 0 22.9566)
(0 0 22.9566)
(0 0 22.9566)
(0 0 22.9566)
(0 0 22.9566)
(0 0 22.9566)
(0 0 22.9566)
(0 0 22.9566)
(0 0 22.9566)
(0 0 22.9566)
(0 0 22.9566)
(0 0 22.9566)
(0 0 22.9566)
(0 0 22.9566)
(0 0 22.9566)
(0 0 22.9567)
(0 0 22.9567)
(0 0 22.9568)
(0 0 22.9569)
(0 0 22.9576)
(0 0 22.9598)
(0 0 22.9479)
(0 0 22.9076)
(0 0 23.1228)
(0 0 22.8236)
(0 0 17.8276)
(0 0 23.9479)
(0 0 22.2963)
(0 0 23.2169)
(0 0 23.4031)
(0 0 23.3795)
(0 0 23.3496)
(0 0 23.3296)
(0 0 23.3151)
(0 0 23.3042)
(0 0 23.2966)
(0 0 23.2914)
(0 0 23.2881)
(0 0 23.286)
(0 0 23.2846)
(0 0 23.2838)
(0 0 23.2833)
(0 0 23.283)
(0 0 23.2828)
(0 0 23.2827)
(0 0 23.2826)
(0 0 23.2826)
(0 0 23.2826)
(0 0 23.2826)
(0 0 23.2826)
(0 0 23.2826)
(0 0 23.2826)
(0 0 23.2826)
(0 0 23.2825)
(0 0 23.2825)
(0 0 23.2825)
(0 0 23.2825)
(0 0 23.2825)
(0 0 23.2825)
(0 0 23.2825)
(0 0 23.2825)
(0 0 23.2825)
(0 0 23.2826)
(0 0 23.2826)
(0 0 23.2826)
(0 0 23.2826)
(0 0 23.2826)
(0 0 23.2826)
(0 0 23.2826)
(0 0 23.2826)
(0 0 23.2826)
(0 0 23.2826)
(0 0 23.2826)
(0 0 23.2826)
(0 0 23.2826)
(0 0 23.2826)
(0 0 23.2826)
(0 0 23.2826)
(0 0 23.2826)
(0 0 23.2826)
(0 0 23.2826)
(0 0 23.2826)
(0 0 23.2826)
(0 0 23.2826)
(0 0 23.2826)
(0 0 23.2826)
(0 0 23.2826)
(0 0 23.2826)
(0 0 23.2826)
(0 0 23.2826)
(0 0 23.2826)
(0 0 23.2826)
(0 0 23.2826)
(0 0 23.2826)
(0 0 23.2826)
(0 0 23.2826)
(0 0 23.2825)
(0 0 23.2825)
(0 0 23.2825)
(0 0 23.2825)
(0 0 23.2825)
(0 0 23.2825)
(0 0 23.2825)
(0 0 23.2825)
(0 0 23.2825)
(0 0 23.2825)
(0 0 23.2825)
(0 0 23.2825)
(0 0 23.2825)
(0 0 23.2825)
(0 0 23.2825)
(0 0 23.2825)
(0 0 23.2826)
(0 0 23.2826)
(0 0 23.2826)
(0 0 23.2826)
(0 0 23.2826)
(0 0 23.2826)
(0 0 23.2827)
(0 0 23.2833)
(0 0 23.2853)
(0 0 23.2727)
(0 0 23.2319)
(0 0 23.4492)
(0 0 23.1531)
(0 0 17.6993)
(0 0 23.6881)
(0 0 22.1149)
(0 0 23.1469)
(0 0 23.4148)
(0 0 23.4483)
(0 0 23.4593)
(0 0 23.4682)
(0 0 23.4732)
(0 0 23.4755)
(0 0 23.4764)
(0 0 23.4768)
(0 0 23.4769)
(0 0 23.4771)
(0 0 23.4771)
(0 0 23.4772)
(0 0 23.4772)
(0 0 23.4772)
(0 0 23.4773)
(0 0 23.4773)
(0 0 23.4773)
(0 0 23.4773)
(0 0 23.4773)
(0 0 23.4773)
(0 0 23.4773)
(0 0 23.4773)
(0 0 23.4773)
(0 0 23.4773)
(0 0 23.4773)
(0 0 23.4773)
(0 0 23.4773)
(0 0 23.4773)
(0 0 23.4773)
(0 0 23.4773)
(0 0 23.4773)
(0 0 23.4773)
(0 0 23.4773)
(0 0 23.4773)
(0 0 23.4773)
(0 0 23.4773)
(0 0 23.4773)
(0 0 23.4773)
(0 0 23.4773)
(0 0 23.4773)
(0 0 23.4773)
(0 0 23.4773)
(0 0 23.4773)
(0 0 23.4773)
(0 0 23.4773)
(0 0 23.4773)
(0 0 23.4773)
(0 0 23.4773)
(0 0 23.4773)
(0 0 23.4773)
(0 0 23.4773)
(0 0 23.4773)
(0 0 23.4773)
(0 0 23.4773)
(0 0 23.4773)
(0 0 23.4773)
(0 0 23.4773)
(0 0 23.4773)
(0 0 23.4773)
(0 0 23.4773)
(0 0 23.4773)
(0 0 23.4773)
(0 0 23.4773)
(0 0 23.4773)
(0 0 23.4773)
(0 0 23.4773)
(0 0 23.4773)
(0 0 23.4773)
(0 0 23.4773)
(0 0 23.4773)
(0 0 23.4773)
(0 0 23.4773)
(0 0 23.4773)
(0 0 23.4773)
(0 0 23.4773)
(0 0 23.4773)
(0 0 23.4773)
(0 0 23.4773)
(0 0 23.4773)
(0 0 23.4773)
(0 0 23.4773)
(0 0 23.4773)
(0 0 23.4773)
(0 0 23.4773)
(0 0 23.4773)
(0 0 23.4773)
(0 0 23.4773)
(0 0 23.4772)
(0 0 23.4772)
(0 0 23.4772)
(0 0 23.4777)
(0 0 23.4796)
(0 0 23.4665)
(0 0 23.4255)
(0 0 23.6446)
(0 0 23.3505)
(0 0 17.5855)
(0 0 23.4462)
(0 0 21.9145)
(0 0 23.0272)
(0 0 23.3609)
(0 0 23.4438)
(0 0 23.492)
(0 0 23.5279)
(0 0 23.5519)
(0 0 23.5669)
(0 0 23.5763)
(0 0 23.5822)
(0 0 23.5859)
(0 0 23.5882)
(0 0 23.5897)
(0 0 23.5906)
(0 0 23.5912)
(0 0 23.5915)
(0 0 23.5918)
(0 0 23.5919)
(0 0 23.592)
(0 0 23.592)
(0 0 23.592)
(0 0 23.5921)
(0 0 23.5921)
(0 0 23.5921)
(0 0 23.5921)
(0 0 23.5921)
(0 0 23.5921)
(0 0 23.5921)
(0 0 23.5921)
(0 0 23.5921)
(0 0 23.5921)
(0 0 23.5921)
(0 0 23.5921)
(0 0 23.5921)
(0 0 23.5921)
(0 0 23.5921)
(0 0 23.5921)
(0 0 23.5921)
(0 0 23.5921)
(0 0 23.5921)
(0 0 23.5921)
(0 0 23.5921)
(0 0 23.5921)
(0 0 23.5921)
(0 0 23.5921)
(0 0 23.5921)
(0 0 23.5921)
(0 0 23.5921)
(0 0 23.5921)
(0 0 23.5921)
(0 0 23.5921)
(0 0 23.5921)
(0 0 23.5921)
(0 0 23.5921)
(0 0 23.5921)
(0 0 23.5921)
(0 0 23.5921)
(0 0 23.5921)
(0 0 23.5921)
(0 0 23.5921)
(0 0 23.5921)
(0 0 23.5921)
(0 0 23.5921)
(0 0 23.5921)
(0 0 23.5921)
(0 0 23.5921)
(0 0 23.5921)
(0 0 23.5921)
(0 0 23.5921)
(0 0 23.5921)
(0 0 23.5921)
(0 0 23.5921)
(0 0 23.5921)
(0 0 23.5921)
(0 0 23.5921)
(0 0 23.5921)
(0 0 23.5921)
(0 0 23.5921)
(0 0 23.5921)
(0 0 23.5921)
(0 0 23.5921)
(0 0 23.5921)
(0 0 23.5921)
(0 0 23.5921)
(0 0 23.5921)
(0 0 23.5921)
(0 0 23.5921)
(0 0 23.5921)
(0 0 23.592)
(0 0 23.592)
(0 0 23.5919)
(0 0 23.5919)
(0 0 23.5923)
(0 0 23.594)
(0 0 23.5805)
(0 0 23.5396)
(0 0 23.76)
(0 0 23.4674)
(0 0 17.4894)
(0 0 23.2349)
(0 0 21.7208)
(0 0 22.8904)
(0 0 23.2759)
(0 0 23.4006)
(0 0 23.4817)
(0 0 23.5424)
(0 0 23.5841)
(0 0 23.6113)
(0 0 23.6288)
(0 0 23.64)
(0 0 23.6471)
(0 0 23.6516)
(0 0 23.6545)
(0 0 23.6562)
(0 0 23.6573)
(0 0 23.658)
(0 0 23.6584)
(0 0 23.6586)
(0 0 23.6588)
(0 0 23.6589)
(0 0 23.6589)
(0 0 23.659)
(0 0 23.659)
(0 0 23.659)
(0 0 23.659)
(0 0 23.659)
(0 0 23.659)
(0 0 23.659)
(0 0 23.659)
(0 0 23.659)
(0 0 23.659)
(0 0 23.659)
(0 0 23.659)
(0 0 23.659)
(0 0 23.659)
(0 0 23.659)
(0 0 23.659)
(0 0 23.659)
(0 0 23.659)
(0 0 23.659)
(0 0 23.659)
(0 0 23.659)
(0 0 23.659)
(0 0 23.659)
(0 0 23.659)
(0 0 23.659)
(0 0 23.659)
(0 0 23.659)
(0 0 23.659)
(0 0 23.659)
(0 0 23.659)
(0 0 23.659)
(0 0 23.659)
(0 0 23.659)
(0 0 23.659)
(0 0 23.659)
(0 0 23.659)
(0 0 23.659)
(0 0 23.659)
(0 0 23.659)
(0 0 23.659)
(0 0 23.659)
(0 0 23.659)
(0 0 23.659)
(0 0 23.659)
(0 0 23.659)
(0 0 23.659)
(0 0 23.659)
(0 0 23.659)
(0 0 23.659)
(0 0 23.659)
(0 0 23.659)
(0 0 23.659)
(0 0 23.659)
(0 0 23.659)
(0 0 23.659)
(0 0 23.659)
(0 0 23.659)
(0 0 23.659)
(0 0 23.659)
(0 0 23.659)
(0 0 23.659)
(0 0 23.659)
(0 0 23.659)
(0 0 23.659)
(0 0 23.659)
(0 0 23.659)
(0 0 23.6589)
(0 0 23.6589)
(0 0 23.6588)
(0 0 23.6587)
(0 0 23.6586)
(0 0 23.6589)
(0 0 23.6605)
(0 0 23.6468)
(0 0 23.6061)
(0 0 23.8276)
(0 0 23.5358)
(0 0 17.4109)
(0 0 23.0573)
(0 0 21.5466)
(0 0 22.7555)
(0 0 23.1809)
(0 0 23.3402)
(0 0 23.4497)
(0 0 23.5326)
(0 0 23.5904)
(0 0 23.6288)
(0 0 23.6539)
(0 0 23.67)
(0 0 23.6804)
(0 0 23.6869)
(0 0 23.691)
(0 0 23.6936)
(0 0 23.6952)
(0 0 23.6961)
(0 0 23.6967)
(0 0 23.6971)
(0 0 23.6973)
(0 0 23.6974)
(0 0 23.6975)
(0 0 23.6975)
(0 0 23.6976)
(0 0 23.6976)
(0 0 23.6976)
(0 0 23.6976)
(0 0 23.6976)
(0 0 23.6976)
(0 0 23.6976)
(0 0 23.6976)
(0 0 23.6976)
(0 0 23.6976)
(0 0 23.6976)
(0 0 23.6976)
(0 0 23.6976)
(0 0 23.6976)
(0 0 23.6976)
(0 0 23.6976)
(0 0 23.6976)
(0 0 23.6976)
(0 0 23.6976)
(0 0 23.6976)
(0 0 23.6976)
(0 0 23.6976)
(0 0 23.6976)
(0 0 23.6976)
(0 0 23.6976)
(0 0 23.6976)
(0 0 23.6976)
(0 0 23.6976)
(0 0 23.6976)
(0 0 23.6976)
(0 0 23.6976)
(0 0 23.6976)
(0 0 23.6976)
(0 0 23.6976)
(0 0 23.6976)
(0 0 23.6976)
(0 0 23.6976)
(0 0 23.6976)
(0 0 23.6976)
(0 0 23.6976)
(0 0 23.6976)
(0 0 23.6976)
(0 0 23.6976)
(0 0 23.6976)
(0 0 23.6976)
(0 0 23.6976)
(0 0 23.6976)
(0 0 23.6976)
(0 0 23.6976)
(0 0 23.6976)
(0 0 23.6976)
(0 0 23.6976)
(0 0 23.6976)
(0 0 23.6976)
(0 0 23.6976)
(0 0 23.6976)
(0 0 23.6976)
(0 0 23.6976)
(0 0 23.6976)
(0 0 23.6976)
(0 0 23.6976)
(0 0 23.6976)
(0 0 23.6976)
(0 0 23.6976)
(0 0 23.6976)
(0 0 23.6975)
(0 0 23.6975)
(0 0 23.6974)
(0 0 23.6972)
(0 0 23.6971)
(0 0 23.6973)
(0 0 23.6988)
(0 0 23.6849)
(0 0 23.6444)
(0 0 23.8669)
(0 0 23.5755)
(0 0 17.3483)
(0 0 22.9127)
(0 0 21.3975)
(0 0 22.6326)
(0 0 23.0883)
(0 0 23.2755)
(0 0 23.4091)
(0 0 23.5111)
(0 0 23.5832)
(0 0 23.6317)
(0 0 23.6636)
(0 0 23.6843)
(0 0 23.6975)
(0 0 23.7059)
(0 0 23.7112)
(0 0 23.7145)
(0 0 23.7165)
(0 0 23.7178)
(0 0 23.7185)
(0 0 23.719)
(0 0 23.7193)
(0 0 23.7194)
(0 0 23.7195)
(0 0 23.7196)
(0 0 23.7196)
(0 0 23.7196)
(0 0 23.7197)
(0 0 23.7197)
(0 0 23.7197)
(0 0 23.7197)
(0 0 23.7197)
(0 0 23.7197)
(0 0 23.7197)
(0 0 23.7197)
(0 0 23.7197)
(0 0 23.7197)
(0 0 23.7197)
(0 0 23.7197)
(0 0 23.7197)
(0 0 23.7197)
(0 0 23.7197)
(0 0 23.7197)
(0 0 23.7197)
(0 0 23.7197)
(0 0 23.7197)
(0 0 23.7197)
(0 0 23.7197)
(0 0 23.7197)
(0 0 23.7197)
(0 0 23.7197)
(0 0 23.7197)
(0 0 23.7197)
(0 0 23.7197)
(0 0 23.7197)
(0 0 23.7197)
(0 0 23.7197)
(0 0 23.7197)
(0 0 23.7197)
(0 0 23.7197)
(0 0 23.7197)
(0 0 23.7197)
(0 0 23.7197)
(0 0 23.7197)
(0 0 23.7197)
(0 0 23.7197)
(0 0 23.7197)
(0 0 23.7197)
(0 0 23.7197)
(0 0 23.7197)
(0 0 23.7197)
(0 0 23.7197)
(0 0 23.7197)
(0 0 23.7197)
(0 0 23.7197)
(0 0 23.7197)
(0 0 23.7197)
(0 0 23.7197)
(0 0 23.7197)
(0 0 23.7197)
(0 0 23.7197)
(0 0 23.7197)
(0 0 23.7197)
(0 0 23.7197)
(0 0 23.7197)
(0 0 23.7197)
(0 0 23.7197)
(0 0 23.7197)
(0 0 23.7196)
(0 0 23.7196)
(0 0 23.7196)
(0 0 23.7195)
(0 0 23.7194)
(0 0 23.7192)
(0 0 23.719)
(0 0 23.7192)
(0 0 23.7206)
(0 0 23.7066)
(0 0 23.6663)
(0 0 23.8895)
(0 0 23.5984)
(0 0 17.2996)
(0 0 22.7982)
(0 0 21.275)
(0 0 22.5272)
(0 0 23.0054)
(0 0 23.2146)
(0 0 23.3678)
(0 0 23.4859)
(0 0 23.5703)
(0 0 23.6274)
(0 0 23.6653)
(0 0 23.6899)
(0 0 23.7057)
(0 0 23.7158)
(0 0 23.7221)
(0 0 23.726)
(0 0 23.7284)
(0 0 23.7299)
(0 0 23.7308)
(0 0 23.7314)
(0 0 23.7317)
(0 0 23.7319)
(0 0 23.732)
(0 0 23.7321)
(0 0 23.7321)
(0 0 23.7321)
(0 0 23.7322)
(0 0 23.7322)
(0 0 23.7322)
(0 0 23.7322)
(0 0 23.7322)
(0 0 23.7322)
(0 0 23.7322)
(0 0 23.7322)
(0 0 23.7322)
(0 0 23.7322)
(0 0 23.7322)
(0 0 23.7322)
(0 0 23.7322)
(0 0 23.7322)
(0 0 23.7322)
(0 0 23.7322)
(0 0 23.7322)
(0 0 23.7322)
(0 0 23.7322)
(0 0 23.7322)
(0 0 23.7322)
(0 0 23.7322)
(0 0 23.7322)
(0 0 23.7322)
(0 0 23.7322)
(0 0 23.7322)
(0 0 23.7322)
(0 0 23.7322)
(0 0 23.7322)
(0 0 23.7322)
(0 0 23.7322)
(0 0 23.7322)
(0 0 23.7322)
(0 0 23.7322)
(0 0 23.7322)
(0 0 23.7322)
(0 0 23.7322)
(0 0 23.7322)
(0 0 23.7322)
(0 0 23.7322)
(0 0 23.7322)
(0 0 23.7322)
(0 0 23.7322)
(0 0 23.7322)
(0 0 23.7322)
(0 0 23.7322)
(0 0 23.7322)
(0 0 23.7322)
(0 0 23.7322)
(0 0 23.7322)
(0 0 23.7322)
(0 0 23.7322)
(0 0 23.7322)
(0 0 23.7322)
(0 0 23.7322)
(0 0 23.7322)
(0 0 23.7322)
(0 0 23.7322)
(0 0 23.7322)
(0 0 23.7322)
(0 0 23.7322)
(0 0 23.7321)
(0 0 23.7321)
(0 0 23.732)
(0 0 23.732)
(0 0 23.7318)
(0 0 23.7316)
(0 0 23.7314)
(0 0 23.7315)
(0 0 23.7329)
(0 0 23.7188)
(0 0 23.6788)
(0 0 23.9025)
(0 0 23.6115)
(0 0 17.2628)
(0 0 22.7106)
(0 0 21.1787)
(0 0 22.4417)
(0 0 22.9361)
(0 0 23.1621)
(0 0 23.3308)
(0 0 23.4619)
(0 0 23.5562)
(0 0 23.6205)
(0 0 23.6633)
(0 0 23.6912)
(0 0 23.7091)
(0 0 23.7205)
(0 0 23.7277)
(0 0 23.7322)
(0 0 23.7349)
(0 0 23.7366)
(0 0 23.7376)
(0 0 23.7383)
(0 0 23.7386)
(0 0 23.7389)
(0 0 23.739)
(0 0 23.7391)
(0 0 23.7391)
(0 0 23.7391)
(0 0 23.7392)
(0 0 23.7392)
(0 0 23.7392)
(0 0 23.7392)
(0 0 23.7392)
(0 0 23.7392)
(0 0 23.7392)
(0 0 23.7392)
(0 0 23.7392)
(0 0 23.7392)
(0 0 23.7392)
(0 0 23.7392)
(0 0 23.7392)
(0 0 23.7392)
(0 0 23.7392)
(0 0 23.7392)
(0 0 23.7392)
(0 0 23.7392)
(0 0 23.7392)
(0 0 23.7392)
(0 0 23.7392)
(0 0 23.7392)
(0 0 23.7392)
(0 0 23.7392)
(0 0 23.7392)
(0 0 23.7392)
(0 0 23.7392)
(0 0 23.7392)
(0 0 23.7392)
(0 0 23.7392)
(0 0 23.7392)
(0 0 23.7392)
(0 0 23.7392)
(0 0 23.7392)
(0 0 23.7392)
(0 0 23.7392)
(0 0 23.7392)
(0 0 23.7392)
(0 0 23.7392)
(0 0 23.7392)
(0 0 23.7392)
(0 0 23.7392)
(0 0 23.7392)
(0 0 23.7392)
(0 0 23.7392)
(0 0 23.7392)
(0 0 23.7392)
(0 0 23.7392)
(0 0 23.7392)
(0 0 23.7392)
(0 0 23.7392)
(0 0 23.7392)
(0 0 23.7392)
(0 0 23.7392)
(0 0 23.7392)
(0 0 23.7392)
(0 0 23.7392)
(0 0 23.7392)
(0 0 23.7392)
(0 0 23.7392)
(0 0 23.7392)
(0 0 23.7391)
(0 0 23.7391)
(0 0 23.739)
(0 0 23.7389)
(0 0 23.7388)
(0 0 23.7386)
(0 0 23.7383)
(0 0 23.7384)
(0 0 23.7397)
(0 0 23.7256)
(0 0 23.6858)
(0 0 23.9098)
(0 0 23.6189)
(0 0 17.2363)
(0 0 22.647)
(0 0 21.1075)
(0 0 22.377)
(0 0 22.8826)
(0 0 23.1207)
(0 0 23.3009)
(0 0 23.4418)
(0 0 23.5437)
(0 0 23.6136)
(0 0 23.6601)
(0 0 23.6906)
(0 0 23.7102)
(0 0 23.7226)
(0 0 23.7305)
(0 0 23.7354)
(0 0 23.7384)
(0 0 23.7402)
(0 0 23.7413)
(0 0 23.742)
(0 0 23.7424)
(0 0 23.7427)
(0 0 23.7428)
(0 0 23.7429)
(0 0 23.743)
(0 0 23.743)
(0 0 23.743)
(0 0 23.743)
(0 0 23.743)
(0 0 23.743)
(0 0 23.743)
(0 0 23.743)
(0 0 23.743)
(0 0 23.743)
(0 0 23.743)
(0 0 23.743)
(0 0 23.743)
(0 0 23.743)
(0 0 23.743)
(0 0 23.743)
(0 0 23.743)
(0 0 23.743)
(0 0 23.743)
(0 0 23.743)
(0 0 23.743)
(0 0 23.743)
(0 0 23.743)
(0 0 23.743)
(0 0 23.743)
(0 0 23.743)
(0 0 23.743)
(0 0 23.743)
(0 0 23.743)
(0 0 23.743)
(0 0 23.743)
(0 0 23.743)
(0 0 23.743)
(0 0 23.743)
(0 0 23.743)
(0 0 23.743)
(0 0 23.743)
(0 0 23.743)
(0 0 23.743)
(0 0 23.743)
(0 0 23.743)
(0 0 23.743)
(0 0 23.743)
(0 0 23.743)
(0 0 23.743)
(0 0 23.743)
(0 0 23.743)
(0 0 23.743)
(0 0 23.743)
(0 0 23.743)
(0 0 23.743)
(0 0 23.743)
(0 0 23.743)
(0 0 23.743)
(0 0 23.743)
(0 0 23.743)
(0 0 23.743)
(0 0 23.743)
(0 0 23.743)
(0 0 23.743)
(0 0 23.743)
(0 0 23.743)
(0 0 23.743)
(0 0 23.743)
(0 0 23.7429)
(0 0 23.7429)
(0 0 23.7428)
(0 0 23.7426)
(0 0 23.7424)
(0 0 23.7421)
(0 0 23.7422)
(0 0 23.7434)
(0 0 23.7293)
(0 0 23.6896)
(0 0 23.914)
(0 0 23.6231)
(0 0 17.219)
(0 0 22.6052)
(0 0 21.0601)
(0 0 22.3334)
(0 0 22.8461)
(0 0 23.0922)
(0 0 23.2801)
(0 0 23.4276)
(0 0 23.5346)
(0 0 23.6082)
(0 0 23.6573)
(0 0 23.6895)
(0 0 23.7103)
(0 0 23.7235)
(0 0 23.7318)
(0 0 23.7369)
(0 0 23.7401)
(0 0 23.7421)
(0 0 23.7432)
(0 0 23.744)
(0 0 23.7444)
(0 0 23.7446)
(0 0 23.7448)
(0 0 23.7449)
(0 0 23.7449)
(0 0 23.745)
(0 0 23.745)
(0 0 23.745)
(0 0 23.745)
(0 0 23.745)
(0 0 23.745)
(0 0 23.745)
(0 0 23.745)
(0 0 23.745)
(0 0 23.745)
(0 0 23.745)
(0 0 23.745)
(0 0 23.745)
(0 0 23.745)
(0 0 23.745)
(0 0 23.745)
(0 0 23.745)
(0 0 23.745)
(0 0 23.745)
(0 0 23.745)
(0 0 23.745)
(0 0 23.745)
(0 0 23.745)
(0 0 23.745)
(0 0 23.745)
(0 0 23.745)
(0 0 23.745)
(0 0 23.745)
(0 0 23.745)
(0 0 23.745)
(0 0 23.745)
(0 0 23.745)
(0 0 23.745)
(0 0 23.745)
(0 0 23.745)
(0 0 23.745)
(0 0 23.745)
(0 0 23.745)
(0 0 23.745)
(0 0 23.745)
(0 0 23.745)
(0 0 23.745)
(0 0 23.745)
(0 0 23.745)
(0 0 23.745)
(0 0 23.745)
(0 0 23.745)
(0 0 23.745)
(0 0 23.745)
(0 0 23.745)
(0 0 23.745)
(0 0 23.745)
(0 0 23.745)
(0 0 23.745)
(0 0 23.745)
(0 0 23.745)
(0 0 23.745)
(0 0 23.745)
(0 0 23.745)
(0 0 23.745)
(0 0 23.745)
(0 0 23.745)
(0 0 23.745)
(0 0 23.7449)
(0 0 23.7449)
(0 0 23.7448)
(0 0 23.7446)
(0 0 23.7443)
(0 0 23.744)
(0 0 23.7441)
(0 0 23.7454)
(0 0 23.7312)
(0 0 23.6916)
(0 0 23.9161)
(0 0 23.6253)
(0 0 17.2104)
(0 0 22.5844)
(0 0 21.0365)
(0 0 22.3116)
(0 0 22.8277)
(0 0 23.0777)
(0 0 23.2694)
(0 0 23.4202)
(0 0 23.5298)
(0 0 23.6053)
(0 0 23.6558)
(0 0 23.6888)
(0 0 23.7102)
(0 0 23.7237)
(0 0 23.7322)
(0 0 23.7375)
(0 0 23.7408)
(0 0 23.7428)
(0 0 23.744)
(0 0 23.7448)
(0 0 23.7452)
(0 0 23.7455)
(0 0 23.7456)
(0 0 23.7457)
(0 0 23.7458)
(0 0 23.7458)
(0 0 23.7459)
(0 0 23.7459)
(0 0 23.7459)
(0 0 23.7459)
(0 0 23.7459)
(0 0 23.7459)
(0 0 23.7459)
(0 0 23.7459)
(0 0 23.7459)
(0 0 23.7459)
(0 0 23.7459)
(0 0 23.7459)
(0 0 23.7459)
(0 0 23.7459)
(0 0 23.7459)
(0 0 23.7459)
(0 0 23.7459)
(0 0 23.7459)
(0 0 23.7459)
(0 0 23.7459)
(0 0 23.7459)
(0 0 23.7459)
(0 0 23.7459)
(0 0 23.7459)
(0 0 23.7459)
(0 0 23.7459)
(0 0 23.7459)
(0 0 23.7459)
(0 0 23.7459)
(0 0 23.7459)
(0 0 23.7459)
(0 0 23.7459)
(0 0 23.7459)
(0 0 23.7459)
(0 0 23.7459)
(0 0 23.7459)
(0 0 23.7459)
(0 0 23.7459)
(0 0 23.7459)
(0 0 23.7459)
(0 0 23.7459)
(0 0 23.7459)
(0 0 23.7459)
(0 0 23.7459)
(0 0 23.7459)
(0 0 23.7459)
(0 0 23.7459)
(0 0 23.7459)
(0 0 23.7459)
(0 0 23.7459)
(0 0 23.7459)
(0 0 23.7459)
(0 0 23.7459)
(0 0 23.7459)
(0 0 23.7459)
(0 0 23.7459)
(0 0 23.7459)
(0 0 23.7459)
(0 0 23.7459)
(0 0 23.7459)
(0 0 23.7458)
(0 0 23.7458)
(0 0 23.7458)
(0 0 23.7457)
(0 0 23.7456)
(0 0 23.7454)
(0 0 23.7452)
(0 0 23.7448)
(0 0 23.7449)
(0 0 23.7462)
(0 0 23.732)
(0 0 23.6925)
(0 0 23.9171)
(0 0 23.6262)
(0 0 17.2104)
(0 0 22.5844)
(0 0 21.0365)
(0 0 22.3116)
(0 0 22.8277)
(0 0 23.0777)
(0 0 23.2694)
(0 0 23.4202)
(0 0 23.5298)
(0 0 23.6053)
(0 0 23.6558)
(0 0 23.6888)
(0 0 23.7102)
(0 0 23.7237)
(0 0 23.7322)
(0 0 23.7375)
(0 0 23.7408)
(0 0 23.7428)
(0 0 23.744)
(0 0 23.7448)
(0 0 23.7452)
(0 0 23.7455)
(0 0 23.7456)
(0 0 23.7457)
(0 0 23.7458)
(0 0 23.7458)
(0 0 23.7459)
(0 0 23.7459)
(0 0 23.7459)
(0 0 23.7459)
(0 0 23.7459)
(0 0 23.7459)
(0 0 23.7459)
(0 0 23.7459)
(0 0 23.7459)
(0 0 23.7459)
(0 0 23.7459)
(0 0 23.7459)
(0 0 23.7459)
(0 0 23.7459)
(0 0 23.7459)
(0 0 23.7459)
(0 0 23.7459)
(0 0 23.7459)
(0 0 23.7459)
(0 0 23.7459)
(0 0 23.7459)
(0 0 23.7459)
(0 0 23.7459)
(0 0 23.7459)
(0 0 23.7459)
(0 0 23.7459)
(0 0 23.7459)
(0 0 23.7459)
(0 0 23.7459)
(0 0 23.7459)
(0 0 23.7459)
(0 0 23.7459)
(0 0 23.7459)
(0 0 23.7459)
(0 0 23.7459)
(0 0 23.7459)
(0 0 23.7459)
(0 0 23.7459)
(0 0 23.7459)
(0 0 23.7459)
(0 0 23.7459)
(0 0 23.7459)
(0 0 23.7459)
(0 0 23.7459)
(0 0 23.7459)
(0 0 23.7459)
(0 0 23.7459)
(0 0 23.7459)
(0 0 23.7459)
(0 0 23.7459)
(0 0 23.7459)
(0 0 23.7459)
(0 0 23.7459)
(0 0 23.7459)
(0 0 23.7459)
(0 0 23.7459)
(0 0 23.7459)
(0 0 23.7459)
(0 0 23.7459)
(0 0 23.7459)
(0 0 23.7458)
(0 0 23.7458)
(0 0 23.7458)
(0 0 23.7457)
(0 0 23.7456)
(0 0 23.7454)
(0 0 23.7452)
(0 0 23.7448)
(0 0 23.7449)
(0 0 23.7462)
(0 0 23.732)
(0 0 23.6925)
(0 0 23.9171)
(0 0 23.6262)
(0 0 17.219)
(0 0 22.6052)
(0 0 21.0601)
(0 0 22.3334)