/*--------------------------------*- C++ -*----------------------------------*\
| =========                 |                                                 |
| \\      /  F ield         | foam-extend: Open Source CFD                    |
|  \\    /   O peration     | Version:     5.0                                |
|   \\  /    A nd           | Web:         http://www.foam-extend.org         |
|    \\/     M anipulation  |                                                 |
\*---------------------------------------------------------------------------*/
FoamFile
{
    version     2.0;
    format      ascii;
    class       surfaceScalarField;
    location    "0.01";
    object      phi;
}
// * * * * * * * * * * * * * * * * * * * * * * * * * * * * * * * * * * * * * //

dimensions      [0 3 -1 0 0 0 0];

internalField   nonuniform List<scalar> 
7860
(
0.00415946
0.000840538
0.0040005
0.000158967
0.00400512
-4.62375e-06
0.00409627
-9.115e-05
0.00418841
-9.21383e-05
0.00425151
-6.30989e-05
0.00429294
-4.14313e-05
0.00432138
-2.84456e-05
0.00434133
-1.99427e-05
0.00435526
-1.39377e-05
0.00436491
-9.64138e-06
0.0043715
-6.59435e-06
0.00437596
-4.45918e-06
0.00437894
-2.98267e-06
0.00438092
-1.974e-06
0.00438221
-1.29359e-06
0.00438305
-8.39771e-07
0.00438359
-5.4048e-07
0.00438394
-3.4503e-07
0.00438415
-2.18624e-07
0.00438429
-1.3755e-07
0.00438438
-8.59771e-08
0.00438443
-5.33998e-08
0.00438446
-3.29696e-08
0.00438449
-2.02297e-08
0.0043845
-1.23273e-08
0.00438451
-7.454e-09
0.00438451
-4.46502e-09
0.00438451
-2.64049e-09
0.00438451
-1.53184e-09
0.00438452
-8.6145e-10
0.00438452
-4.58713e-10
0.00438452
-2.18425e-10
0.00438452
-7.63878e-11
0.00438452
6.50806e-12
0.00438452
5.39205e-11
0.00438452
8.01643e-11
0.00438452
9.38259e-11
0.00438452
1.00154e-10
0.00438452
1.02216e-10
0.00438452
1.01774e-10
0.00438452
1.0008e-10
0.00438452
9.77181e-11
0.00438452
9.51059e-11
0.00438452
9.24354e-11
0.00438452
8.98604e-11
0.00438452
8.74169e-11
0.00438452
8.51602e-11
0.00438452
8.30659e-11
0.00438452
8.11518e-11
0.00438452
7.93719e-11
0.00438452
7.77267e-11
0.00438452
7.61624e-11
0.00438452
7.46751e-11
0.00438452
7.32025e-11
0.00438452
7.17354e-11
0.00438452
7.02128e-11
0.00438452
6.86234e-11
0.00438452
6.6901e-11
0.00438452
6.50345e-11
0.00438452
6.29588e-11
0.00438452
6.06621e-11
0.00438452
5.80786e-11
0.00438452
5.52027e-11
0.00438452
5.19725e-11
0.00438452
4.83942e-11
0.00438452
4.44229e-11
0.00438452
4.00938e-11
0.00438452
3.54045e-11
0.00438452
3.0461e-11
0.00438452
2.53692e-11
0.00438452
2.04183e-11
0.00438452
1.60039e-11
0.00438452
1.2896e-11
0.00438452
1.2244e-11
0.00438452
1.61683e-11
0.00438452
2.78828e-11
0.00438452
5.2823e-11
0.00438452
9.98629e-11
0.00438452
1.83306e-10
0.00438452
3.26071e-10
0.00438452
5.64726e-10
0.00438451
9.56576e-10
0.00438451
1.59048e-09
0.00438451
2.60236e-09
0.00438451
4.19543e-09
0.0043845
6.66941e-09
0.00438449
1.04527e-08
0.00438447
1.61451e-08
0.00438445
2.45316e-08
0.00438441
3.65212e-08
0.00438436
5.28782e-08
0.00438428
7.6301e-08
0.00438415
1.38038e-07
0.00438375
3.92466e-07
0.00438292
8.31271e-07
0.00438406
-1.13701e-06
0.00439642
-1.23568e-05
0.00436917
2.72475e-05
3.67232e-05
0.0068553
-0.00101476
0.00756066
-0.000546398
0.0078577
-0.000301662
0.00807323
-0.000306673
0.00825944
-0.000278349
0.00840044
-0.000204107
0.00849982
-0.000140803
0.00856874
-9.73672e-05
0.00861644
-6.76414e-05
0.0086493
-4.68043e-05
0.00867178
-3.2121e-05
0.00868702
-2.18272e-05
0.00869724
-1.46781e-05
0.00870402
-9.76901e-06
0.00870849
-6.43658e-06
0.00871139
-4.20068e-06
0.00871327
-2.71687e-06
0.00871447
-1.74253e-06
0.00871524
-1.10887e-06
0.00871572
-7.00518e-07
0.00871602
-4.39524e-07
0.00871621
-2.74004e-07
0.00871633
-1.69766e-07
0.0087164
-1.04563e-07
0.00871644
-6.40111e-08
0.00871647
-3.89209e-08
0.00871649
-2.34832e-08
0.00871649
-1.40336e-08
0.0087165
-8.27687e-09
0.0087165
-4.78656e-09
0.00871651
-2.68114e-09
0.00871651
-1.41859e-09
0.00871651
-6.66624e-10
0.00871651
-2.22967e-10
0.00871651
3.55085e-11
0.00871651
1.82923e-10
0.00871651
2.64326e-10
0.00871651
3.06461e-10
0.00871651
3.25779e-10
0.00871651
3.31735e-10
0.00871651
3.30085e-10
0.00871651
3.24428e-10
0.00871651
3.16806e-10
0.00871651
3.08337e-10
0.00871651
2.99792e-10
0.00871651
2.91475e-10
0.00871651
2.83671e-10
0.00871651
2.76379e-10
0.00871651
2.69692e-10
0.00871651
2.63495e-10
0.00871651
2.5781e-10
0.00871651
2.52471e-10
0.00871651
2.47474e-10
0.00871651
2.42633e-10
0.00871651
2.37919e-10
0.00871651
2.33136e-10
0.00871651
2.28251e-10
0.00871651
2.23062e-10
0.00871651
2.17522e-10
0.00871651
2.11424e-10
0.00871651
2.04726e-10
0.00871651
1.97219e-10
0.00871651
1.88861e-10
0.00871651
1.79458e-10
0.00871651
1.68982e-10
0.00871651
1.57273e-10
0.00871651
1.44361e-10
0.00871651
1.30173e-10
0.00871651
1.14871e-10
0.00871651
9.86032e-11
0.00871651
8.18748e-11
0.00871651
6.53967e-11
0.00871651
5.05864e-11
0.00871651
3.96506e-11
0.00871651
3.64152e-11
0.00871651
4.72202e-11
0.00871651
8.24377e-11
0.00871651
1.59022e-10
0.00871651
3.05118e-10
0.00871651
5.65975e-10
0.00871651
1.01472e-09
0.00871651
1.768e-09
0.00871651
3.01004e-09
0.0087165
5.02776e-09
0.0087165
8.26224e-09
0.00871649
1.33785e-08
0.00871647
2.13633e-08
0.00871645
3.36475e-08
0.00871641
5.22715e-08
0.00871636
8.00779e-08
0.00871627
1.20972e-07
0.00871615
1.80456e-07
0.00871595
2.7043e-07
0.00871565
4.42528e-07
0.0087152
8.42762e-07
0.00871508
9.47249e-07
0.00871767
-3.7249e-06
0.00872264
-1.73273e-05
0.0086948
5.50847e-05
6.58934e-05
0.00680938
-0.00282414
0.00785206
-0.00158908
0.00840662
-0.000856227
0.00874918
-0.000649226
0.00899168
-0.000520848
0.00916607
-0.000378501
0.00928878
-0.000263509
0.00937391
-0.000182501
0.00943254
-0.000126274
0.00947264
-8.69026e-05
0.00949985
-5.93267e-05
0.00951814
-4.01194e-05
0.00953032
-2.68607e-05
0.00953836
-1.78054e-05
0.00954361
-1.1689e-05
0.00954702
-7.60322e-06
0.0095492
-4.90273e-06
0.0095506
-3.1358e-06
0.00955148
-1.99047e-06
0.00955203
-1.25455e-06
0.00955238
-7.85469e-07
0.00955259
-4.8871e-07
0.00955273
-3.0225e-07
0.00955281
-1.85852e-07
0.00955286
-1.136e-07
0.00955289
-6.89797e-08
0.00955291
-4.15708e-08
0.00955292
-2.48179e-08
0.00955292
-1.46257e-08
0.00955293
-8.45498e-09
0.00955293
-4.73797e-09
0.00955293
-2.51127e-09
0.00955293
-1.18611e-09
0.00955293
-4.04648e-10
0.00955293
5.06346e-11
0.00955293
3.10405e-10
0.00955293
4.54141e-10
0.00955293
5.28891e-10
0.00955293
5.63463e-10
0.00955293
5.74474e-10
0.00955293
5.72221e-10
0.00955293
5.62814e-10
0.00955293
5.49926e-10
0.00955293
5.35457e-10
0.00955293
5.20822e-10
0.00955293
5.06503e-10
0.00955293
4.93059e-10
0.00955293
4.8044e-10
0.00955293
4.68868e-10
0.00955293
4.58093e-10
0.00955293
4.48214e-10
0.00955293
4.38887e-10
0.00955293
4.30169e-10
0.00955293
4.21684e-10
0.00955293
4.13432e-10
0.00955293
4.05022e-10
0.00955293
3.96456e-10
0.00955293
3.87329e-10
0.00955293
3.77609e-10
0.00955293
3.66883e-10
0.00955293
3.55141e-10
0.00955293
3.41963e-10
0.00955293
3.27332e-10
0.00955293
3.10856e-10
0.00955293
2.92548e-10
0.00955293
2.72072e-10
0.00955293
2.49544e-10
0.00955293
2.2478e-10
0.00955293
1.98126e-10
0.00955293
1.69783e-10
0.00955293
1.40694e-10
0.00955293
1.12038e-10
0.00955293
8.63556e-11
0.00955293
6.74373e-11
0.00955293
6.21062e-11
0.00955293
8.11988e-11
0.00955293
1.43078e-10
0.00955293
2.77609e-10
0.00955293
5.34168e-10
0.00955293
9.92466e-10
0.00955293
1.78182e-09
0.00955293
3.10833e-09
0.00955293
5.29885e-09
0.00955292
8.86353e-09
0.00955292
1.45878e-08
0.00955291
2.36593e-08
0.00955289
3.78417e-08
0.00955287
5.96956e-08
0.00955283
9.28624e-08
0.00955276
1.42396e-07
0.00955267
2.15169e-07
0.00955253
3.20549e-07
0.00955232
4.74934e-07
0.00955204
7.28222e-07
0.00955172
1.16099e-06
0.00955173
9.3448e-07
0.00955265
-4.64238e-06
0.00954987
-1.45481e-05
0.009545
5.99549e-05
6.6112e-05
0.0060275
-0.00385163
0.00687337
-0.00243495
0.00747573
-0.00145859
0.00786931
-0.0010428
0.00813174
-0.000783281
0.00831346
-0.000560226
0.00844023
-0.000390272
0.0085281
-0.000270372
0.0085885
-0.000186673
0.00862964
-0.000128042
0.00865741
-8.70969e-05
0.00867598
-5.86903e-05
0.00868828
-3.91631e-05
0.00869636
-2.58801e-05
0.00870161
-1.69417e-05
0.008705
-1.09913e-05
0.00870717
-7.07067e-06
0.00870854
-4.51267e-06
0.00870941
-2.85882e-06
0.00870996
-1.79861e-06
0.0087103
-1.12426e-06
0.00871051
-6.98458e-07
0.00871063
-4.31386e-07
0.00871071
-2.64927e-07
0.00871076
-1.61751e-07
0.00871079
-9.81233e-08
0.00871081
-5.90882e-08
0.00871082
-3.52558e-08
0.00871083
-2.07714e-08
0.00871083
-1.20104e-08
0.00871083
-6.73771e-09
0.00871083
-3.58115e-09
0.00871083
-1.7035e-09
0.00871083
-5.96281e-10
0.00871083
4.90443e-11
0.00871083
4.17691e-10
0.00871083
6.22194e-10
0.00871083
7.29318e-10
0.00871083
7.79346e-10
0.00871083
7.9594e-10
0.00871083
7.93937e-10
0.00871083
7.81674e-10
0.00871083
7.64363e-10
0.00871083
7.44726e-10
0.00871083
7.24736e-10
0.00871083
7.05111e-10
0.00871083
6.8661e-10
0.00871083
6.69202e-10
0.00871083
6.53189e-10
0.00871083
6.38256e-10
0.00871083
6.24517e-10
0.00871083
6.11538e-10
0.00871083
5.99357e-10
0.00871083
5.87481e-10
0.00871083
5.75908e-10
0.00871083
5.64118e-10
0.00871083
5.52085e-10
0.00871083
5.39268e-10
0.00871083
5.25621e-10
0.00871083
5.10597e-10
0.00871083
4.94141e-10
0.00871083
4.75707e-10
0.00871083
4.55253e-10
0.00871083
4.32259e-10
0.00871083
4.06731e-10
0.00871083
3.78236e-10
0.00871083
3.4691e-10
0.00871083
3.12533e-10
0.00871083
2.75574e-10
0.00871083
2.36343e-10
0.00871083
1.96151e-10
0.00871083
1.56682e-10
0.00871084
1.21475e-10
0.00871084
9.58856e-11
0.00871084
8.95182e-11
0.00871084
1.17415e-10
0.00871084
2.05666e-10
0.00871084
3.96492e-10
0.00871084
7.59183e-10
0.00871084
1.40647e-09
0.00871083
2.52116e-09
0.00871083
4.39504e-09
0.00871083
7.49127e-09
0.00871083
1.25336e-08
0.00871082
2.06373e-08
0.00871081
3.34895e-08
0.0087108
5.35935e-08
0.00871077
8.45744e-08
0.00871073
1.31547e-07
0.00871067
2.01493e-07
0.00871059
3.03547e-07
0.00871046
4.49106e-07
0.00871028
6.54493e-07
0.00871005
9.60363e-07
0.0087098
1.40653e-06
0.0087096
1.13449e-06
0.00870884
-3.8847e-06
0.00870398
-9.68428e-06
0.00871085
5.30808e-05
5.41229e-05
0.00532377
-0.0041754
0.00582872
-0.00293991
0.00632003
-0.00194989
0.00668003
-0.00140281
0.00692699
-0.00103024
0.00709895
-0.00073218
0.00721942
-0.000510744
0.00730324
-0.000354193
0.00736096
-0.000244391
0.00740027
-0.00016735
0.00742676
-0.000113588
0.00744443
-7.63635e-05
0.00745611
-5.08387e-05
0.00746375
-3.35215e-05
0.00746871
-2.18986e-05
0.0074719
-1.41801e-05
0.00747393
-9.1061e-06
0.00747522
-5.80242e-06
0.00747603
-3.67052e-06
0.00747654
-2.3062e-06
0.00747686
-1.43979e-06
0.00747705
-8.93488e-07
0.00747717
-5.51286e-07
0.00747725
-3.38246e-07
0.00747729
-2.06341e-07
0.00747732
-1.25082e-07
0.00747733
-7.52765e-08
0.00747734
-4.48944e-08
0.00747735
-2.64435e-08
0.00747735
-1.52908e-08
0.00747736
-8.58231e-09
0.00747736
-4.56822e-09
0.00747736
-2.18139e-09
0.00747736
-7.73757e-10
0.00747736
4.68895e-11
0.00747736
5.16175e-10
0.00747736
7.7699e-10
0.00747736
9.14208e-10
0.00747736
9.78701e-10
0.00747736
1.00096e-09
0.00747736
9.99693e-10
0.00747736
9.85152e-10
0.00747736
9.64046e-10
0.00747736
9.39914e-10
0.00747736
9.15192e-10
0.00747736
8.90869e-10
0.00747736
8.67839e-10
0.00747736
8.46148e-10
0.00747736
8.26116e-10
0.00747736
8.07426e-10
0.00747736
7.90159e-10
0.00747736
7.7385e-10
0.00747736
7.58475e-10
0.00747736
7.43493e-10
0.00747736
7.28837e-10
0.00747736
7.13931e-10
0.00747736
6.98673e-10
0.00747736
6.82455e-10
0.00747736
6.65159e-10
0.00747736
6.46173e-10
0.00747736
6.25357e-10
0.00747736
6.02103e-10
0.00747736
5.76292e-10
0.00747736
5.47349e-10
0.00747736
5.15221e-10
0.00747736
4.79442e-10
0.00747736
4.4012e-10
0.00747736
3.97059e-10
0.00747736
3.50788e-10
0.00747736
3.01778e-10
0.00747736
2.51621e-10
0.00747736
2.02516e-10
0.00747736
1.58864e-10
0.00747736
1.27491e-10
0.00747736
1.20449e-10
0.00747736
1.56839e-10
0.00747736
2.69574e-10
0.00747736
5.12101e-10
0.00747736
9.72044e-10
0.00747736
1.79229e-09
0.00747736
3.20443e-09
0.00747736
5.57859e-09
0.00747736
9.50242e-09
0.00747735
1.58947e-08
0.00747735
2.61712e-08
0.00747734
4.24728e-08
0.00747732
6.79702e-08
0.0074773
1.07236e-07
0.00747727
1.66666e-07
0.00747721
2.54826e-07
0.00747713
3.82506e-07
0.00747702
5.62124e-07
0.00747687
8.08867e-07
0.00747667
1.15607e-06
0.00747645
1.62362e-06
0.00747616
1.43023e-06
0.0074749
-2.63063e-06
0.00747062
-5.40167e-06
0.00748134
4.23616e-05
3.95951e-05
0.00485143
-0.00402684
0.00504089
-0.00312937
0.00536518
-0.00227418
0.00564508
-0.0016827
0.00585123
-0.0012364
0.00599982
-0.000880764
0.00610591
-0.000616839
0.00618056
-0.000428837
0.00623228
-0.000296119
0.00626763
-0.000202697
0.00629148
-0.000137437
0.00630739
-9.22696e-05
0.00631788
-6.13353e-05
0.00632474
-4.03809e-05
0.00632919
-2.63407e-05
0.00633204
-1.70328e-05
0.00633386
-1.09238e-05
0.00633501
-6.95235e-06
0.00633573
-4.39312e-06
0.00633618
-2.75744e-06
0.00633646
-1.71992e-06
0.00633663
-1.06643e-06
0.00633674
-6.57483e-07
0.00633681
-4.03115e-07
0.00633685
-2.45747e-07
0.00633687
-1.48879e-07
0.00633688
-8.95504e-08
0.00633689
-5.33819e-08
0.0063369
-3.14303e-08
0.0063369
-1.81679e-08
0.0063369
-1.0194e-08
0.0063369
-5.42454e-09
0.0063369
-2.58915e-09
0.0063369
-9.16881e-10
0.0063369
5.7996e-11
0.0063369
6.15788e-10
0.0063369
9.26062e-10
0.0063369
1.08966e-09
0.0063369
1.16692e-09
0.0063369
1.19411e-09
0.0063369
1.19328e-09
0.0063369
1.17664e-09
0.0063369
1.15209e-09
0.0063369
1.12389e-09
0.0063369
1.09488e-09
0.0063369
1.0663e-09
0.0063369
1.03915e-09
0.0063369
1.01357e-09
0.0063369
9.89858e-10
0.0063369
9.67732e-10
0.0063369
9.47215e-10
0.0063369
9.27842e-10
0.0063369
9.09507e-10
0.0063369
8.91655e-10
0.0063369
8.7413e-10
0.0063369
8.56334e-10
0.0063369
8.38069e-10
0.0063369
8.18697e-10
0.0063369
7.98002e-10
0.0063369
7.75342e-10
0.0063369
7.50476e-10
0.0063369
7.22767e-10
0.0063369
6.92001e-10
0.0063369
6.5758e-10
0.0063369
6.1937e-10
0.0063369
5.76904e-10
0.0063369
5.3024e-10
0.0063369
4.7923e-10
0.0063369
4.24431e-10
0.0063369
3.66481e-10
0.0063369
3.07193e-10
0.0063369
2.49245e-10
0.0063369
1.97766e-10
0.0063369
1.60899e-10
0.0063369
1.52794e-10
0.00633691
1.96192e-10
0.00633691
3.29879e-10
0.00633691
6.17108e-10
0.00633691
1.16157e-09
0.0063369
2.13254e-09
0.0063369
3.80414e-09
0.0063369
6.61501e-09
0.0063369
1.12614e-08
0.0063369
1.88321e-08
0.00633689
3.10039e-08
0.00633689
5.03104e-08
0.00633687
8.04947e-08
0.00633685
1.2693e-07
0.00633682
1.97062e-07
0.00633678
3.00687e-07
0.00633671
4.49726e-07
0.00633662
6.57042e-07
0.00633649
9.3673e-07
0.00633633
1.3171e-06
0.00633615
1.80471e-06
0.00633588
1.70184e-06
0.0063347
-1.45736e-06
0.00633171
-2.40692e-06
0.00634244
3.16311e-05
2.66331e-05
0.00459393
-0.00362077
0.00454787
-0.0030833
0.0047068
-0.00243311
0.00489005
-0.00186595
0.0050418
-0.00138814
0.00515819
-0.000997156
0.00524425
-0.0007029
0.00530603
-0.000490618
0.00534936
-0.000339443
0.00537917
-0.000232508
0.00539936
-0.000157624
0.00541284
-0.000105753
0.00542174
-7.02347e-05
0.00542755
-4.61927e-05
0.00543131
-3.01004e-05
0.00543372
-1.9444e-05
0.00543526
-1.24582e-05
0.00543623
-7.92172e-06
0.00543683
-5.00146e-06
0.00543721
-3.13685e-06
0.00543745
-1.95518e-06
0.0054376
-1.2115e-06
0.00543768
-7.46473e-07
0.00543774
-4.5741e-07
0.00543777
-2.78687e-07
0.00543779
-1.68745e-07
0.0054378
-1.01446e-07
0.00543781
-6.04398e-08
0.00543782
-3.55639e-08
0.00543782
-2.05404e-08
0.00543782
-1.15107e-08
0.00543782
-6.11145e-09
0.00543782
-2.90247e-09
0.00543782
-1.01022e-09
0.00543782
9.26532e-11
0.00543782
7.23687e-10
0.00543782
1.07464e-09
0.00543782
1.25969e-09
0.00543782
1.34712e-09
0.00543782
1.37795e-09
0.00543782
1.37695e-09
0.00543782
1.35809e-09
0.00543782
1.33019e-09
0.00543782
1.29818e-09
0.00543782
1.26517e-09
0.00543782
1.23266e-09
0.00543782
1.20169e-09
0.00543782
1.17251e-09
0.00543782
1.14539e-09
0.00543782
1.12009e-09
0.00543782
1.09655e-09
0.00543782
1.07433e-09
0.00543782
1.05324e-09
0.00543782
1.03271e-09
0.00543782
1.0125e-09
0.00543782
9.92011e-10
0.00543782
9.70928e-10
0.00543782
9.48612e-10
0.00543782
9.24736e-10
0.00543782
8.98648e-10
0.00543782
8.69997e-10
0.00543782
8.38139e-10
0.00543782
8.02752e-10
0.00543782
7.63241e-10
0.00543782
7.19373e-10
0.00543782
6.707e-10
0.00543782
6.17216e-10
0.00543782
5.5883e-10
0.00543782
4.961e-10
0.00543782
4.29825e-10
0.00543782
3.61981e-10
0.00543782
2.95666e-10
0.00543782
2.36596e-10
0.00543782
1.9403e-10
0.00543782
1.83838e-10
0.00543782
2.31823e-10
0.00543782
3.81601e-10
0.00543782
7.04551e-10
0.00543782
1.31769e-09
0.00543782
2.41213e-09
0.00543782
4.29716e-09
0.00543782
7.46806e-09
0.00543782
1.27107e-08
0.00543782
2.12539e-08
0.00543781
3.49888e-08
0.00543781
5.67694e-08
0.0054378
9.08007e-08
0.00543778
1.43091e-07
0.00543776
2.21884e-07
0.00543772
3.37851e-07
0.00543766
5.03579e-07
0.00543759
7.3196e-07
0.00543749
1.03601e-06
0.00543737
1.43935e-06
0.00543724
1.93253e-06
0.00543706
1.88148e-06
0.00543617
-5.70278e-07
0.0054344
-6.29558e-07
0.0054436
2.24327e-05
1.65245e-05
0.00448998
-0.00311075
0.00429208
-0.0028854
0.00431286
-0.00245388
0.00440178
-0.00195487
0.00449494
-0.00148131
0.00457475
-0.00107697
0.00463738
-0.000765524
0.00468387
-0.000537109
0.00471711
-0.000372683
0.00474026
-0.000255652
0.00475603
-0.0001734
0.0047666
-0.000116325
0.00477359
-7.72208e-05
0.00477815
-5.07548e-05
0.0047811
-3.30494e-05
0.00478299
-2.13331e-05
0.00478419
-1.36587e-05
0.00478495
-8.67902e-06
0.00478542
-5.47602e-06
0.00478572
-3.4324e-06
0.0047859
-2.13818e-06
0.00478602
-1.3242e-06
0.00478608
-8.1551e-07
0.00478613
-4.99468e-07
0.00478615
-3.04158e-07
0.00478617
-1.84074e-07
0.00478618
-1.10599e-07
0.00478618
-6.58491e-08
0.00478619
-3.87124e-08
0.00478619
-2.23288e-08
0.00478619
-1.24846e-08
0.00478619
-6.59996e-09
0.00478619
-3.10359e-09
0.00478619
-1.04264e-09
0.00478619
1.57979e-10
0.00478619
8.44548e-10
0.00478619
1.22591e-09
0.00478619
1.42658e-09
0.00478619
1.52093e-09
0.00478619
1.55369e-09
0.00478619
1.55166e-09
0.00478619
1.53026e-09
0.00478619
1.49899e-09
0.00478619
1.46328e-09
0.00478619
1.42647e-09
0.00478619
1.39026e-09
0.00478619
1.35572e-09
0.00478619
1.32318e-09
0.00478619
1.29289e-09
0.00478619
1.26462e-09
0.00478619
1.23826e-09
0.00478619
1.21339e-09
0.00478619
1.18971e-09
0.00478619
1.16669e-09
0.00478619
1.14396e-09
0.00478619
1.12095e-09
0.00478619
1.09722e-09
0.00478619
1.07215e-09
0.00478619
1.04529e-09
0.00478619
1.01599e-09
0.00478619
9.838e-10
0.00478619
9.48061e-10
0.00478619
9.08353e-10
0.00478619
8.64083e-10
0.00478619
8.14927e-10
0.00478619
7.60454e-10
0.00478619
7.00589e-10
0.00478619
6.35298e-10
0.00478619
5.65119e-10
0.00478619
4.90991e-10
0.00478619
4.15002e-10
0.00478619
3.40588e-10
0.00478619
2.73907e-10
0.00478619
2.25094e-10
0.00478619
2.11336e-10
0.00478619
2.60815e-10
0.00478619
4.20832e-10
0.00478619
7.69005e-10
0.00478619
1.43257e-09
0.00478619
2.61933e-09
0.00478619
4.66546e-09
0.00478619
8.1095e-09
0.00478619
1.38056e-08
0.00478619
2.30889e-08
0.00478618
3.80126e-08
0.00478618
6.1671e-08
0.00478617
9.86103e-08
0.00478616
1.55293e-07
0.00478614
2.40509e-07
0.00478611
3.65446e-07
0.00478607
5.42936e-07
0.00478602
7.85514e-07
0.00478595
1.10483e-06
0.00478587
1.51851e-06
0.00478581
1.99591e-06
0.00478574
1.94854e-06
0.00478517
5.9273e-09
0.0047843
2.3323e-07
0.00479156
1.51743e-05
9.28828e-06
0.00448018
-0.00259093
0.00419864
-0.00260386
0.00411572
-0.00237096
0.00412231
-0.00196147
0.00415903
-0.00151803
0.00420133
-0.00111927
0.00423901
-0.000803199
0.00426885
-0.000566948
0.00429096
-0.00039479
0.00430668
-0.000271375
0.00431752
-0.000184244
0.00432483
-0.000123637
0.00432968
-8.20645e-05
0.00433284
-5.39192e-05
0.00433489
-3.5093e-05
0.00433619
-2.26401e-05
0.00433702
-1.44876e-05
0.00433754
-9.20076e-06
0.00433787
-5.80224e-06
0.00433807
-3.63511e-06
0.0043382
-2.26343e-06
0.00433828
-1.40116e-06
0.00433832
-8.62544e-07
0.00433835
-5.28044e-07
0.00433837
-3.21407e-07
0.00433838
-1.94413e-07
0.00433839
-1.16739e-07
0.00433839
-6.94473e-08
0.00433839
-4.07783e-08
0.00433839
-2.34748e-08
0.00433839
-1.30808e-08
0.00433839
-6.86937e-09
0.00433839
-3.18021e-09
0.00433839
-1.00678e-09
0.00433839
2.58358e-10
0.00433839
9.80963e-10
0.00433839
1.38139e-09
0.00433839
1.59115e-09
0.00433839
1.68879e-09
0.00433839
1.72147e-09
0.00433839
1.71742e-09
0.00433839
1.69301e-09
0.00433839
1.65825e-09
0.00433839
1.6189e-09
0.00433839
1.57844e-09
0.00433839
1.53872e-09
0.00433839
1.50082e-09
0.00433839
1.46515e-09
0.00433839
1.43188e-09
0.00433839
1.40085e-09
0.00433839
1.37186e-09
0.00433839
1.3445e-09
0.00433839
1.31841e-09
0.00433839
1.29306e-09
0.00433839
1.26799e-09
0.00433839
1.24261e-09
0.00433839
1.21642e-09
0.00433839
1.18877e-09
0.00433839
1.15912e-09
0.00433839
1.12682e-09
0.00433839
1.09132e-09
0.00433839
1.05195e-09
0.00433839
1.0082e-09
0.00433839
9.59484e-10
0.00433839
9.05383e-10
0.00433839
8.45484e-10
0.00433839
7.79642e-10
0.00433839
7.07866e-10
0.00433839
6.30667e-10
0.00433839
5.49086e-10
0.00433839
4.65273e-10
0.00433839
3.82913e-10
0.00433839
3.08455e-10
0.0043384
2.52644e-10
0.0043384
2.3355e-10
0.0043384
2.80982e-10
0.0043384
4.44705e-10
0.0043384
8.06527e-10
0.0043384
1.50053e-09
0.0043384
2.74564e-09
0.0043384
4.89594e-09
0.0043384
8.51873e-09
0.00433839
1.45133e-08
0.00433839
2.4285e-08
0.00433839
3.99931e-08
0.00433839
6.48863e-08
0.00433838
1.03725e-07
0.00433838
1.63242e-07
0.00433836
2.52512e-07
0.00433835
3.82904e-07
0.00433832
5.67105e-07
0.00433829
8.16923e-07
0.00433825
1.14212e-06
0.00433822
1.55257e-06
0.00433822
1.99298e-06
0.00433826
1.91225e-06
0.00433794
3.2148e-07
0.00433768
5.00929e-07
0.0043431
9.74843e-06
4.44947e-06
0.00452031
-0.00211124
0.00420379
-0.00228734
0.00404956
-0.00221673
0.0039894
-0.00190131
0.00397541
-0.00150404
0.00398169
-0.00112554
0.00399438
-0.000815892
0.0040071
-0.00057966
0.00401756
-0.000405253
0.00402543
-0.000279249
0.00403103
-0.000189839
0.00403486
-0.000127465
0.00403741
-8.46165e-05
0.00403908
-5.55878e-05
0.00404015
-3.6168e-05
0.00404084
-2.33248e-05
0.00404127
-1.49195e-05
0.00404154
-9.47112e-06
0.00404171
-5.97029e-06
0.00404181
-3.73892e-06
0.00404188
-2.32719e-06
0.00404192
-1.4401e-06
0.00404194
-8.86192e-07
0.00404195
-5.42302e-07
0.00404196
-3.29931e-07
0.00404197
-1.9946e-07
0.00404197
-1.19684e-07
0.00404197
-7.11262e-08
0.00404197
-4.16974e-08
0.00404198
-2.39404e-08
0.00404198
-1.3277e-08
0.00404198
-6.90665e-09
0.00404198
-3.12485e-09
0.00404198
-8.9844e-10
0.00404198
3.9604e-10
0.00404198
1.13401e-09
0.00404198
1.54147e-09
0.00404198
1.75339e-09
0.00404198
1.85039e-09
0.00404198
1.88085e-09
0.00404198
1.87366e-09
0.00404198
1.84575e-09
0.00404198
1.80732e-09
0.00404198
1.76437e-09
0.00404198
1.72039e-09
0.00404198
1.67734e-09
0.00404198
1.63629e-09
0.00404198
1.59768e-09
0.00404198
1.56164e-09
0.00404198
1.52803e-09
0.00404198
1.4966e-09
0.00404198
1.46694e-09
0.00404198
1.43861e-09
0.00404198
1.41109e-09
0.00404198
1.38384e-09
0.00404198
1.35627e-09
0.00404198
1.32779e-09
0.00404198
1.29774e-09
0.00404198
1.2655e-09
0.00404198
1.23041e-09
0.00404198
1.19182e-09
0.00404198
1.14908e-09
0.00404198
1.10158e-09
0.00404198
1.04872e-09
0.00404198
9.90013e-10
0.00404198
9.25054e-10
0.00404198
8.5363e-10
0.00404198
7.75778e-10
0.00404198
6.9197e-10
0.00404198
6.03311e-10
0.00404198
5.11967e-10
0.00404198
4.21769e-10
0.00404198
3.393e-10
0.00404198
2.75637e-10
0.00404198
2.49278e-10
0.00404198
2.90872e-10
0.00404198
4.51359e-10
0.00404198
8.14594e-10
0.00404198
1.51794e-09
0.00404198
2.78565e-09
0.00404198
4.98025e-09
0.00404198
8.68263e-09
0.00404198
1.48132e-08
0.00404198
2.48094e-08
0.00404197
4.08781e-08
0.00404197
6.63348e-08
0.00404197
1.06023e-07
0.00404197
1.66761e-07
0.00404196
2.57655e-07
0.00404196
3.89942e-07
0.00404195
5.75817e-07
0.00404194
8.26029e-07
0.00404193
1.14791e-06
0.00404194
1.5423e-06
0.00404201
1.92935e-06
0.00404212
1.79555e-06
0.004042
4.47255e-07
0.00404207
4.324e-07
0.00404596
5.8591e-06
1.4235e-06
0.0045816
-0.00169284
0.00426147
-0.00196721
0.00406247
-0.00201772
0.00395115
-0.00178999
0.00389379
-0.00144668
0.00386705
-0.0010988
0.0038558
-0.000804644
0.00385162
-0.000575481
0.00385039
-0.000404022
0.00385028
-0.000279141
0.0038505
-0.000190054
0.00385074
-0.000127708
0.00385093
-8.48028e-05
0.00385105
-5.57103e-05
0.00385112
-3.62416e-05
0.00385116
-2.33661e-05
0.00385119
-1.49413e-05
0.0038512
-9.48182e-06
0.0038512
-5.97506e-06
0.0038512
-3.7407e-06
0.0038512
-2.32755e-06
0.0038512
-1.43987e-06
0.0038512
-8.8575e-07
0.0038512
-5.41817e-07
0.0038512
-3.29477e-07
0.0038512
-1.99065e-07
0.0038512
-1.19346e-07
0.0038512
-7.08332e-08
0.0038512
-4.14387e-08
0.0038512
-2.37077e-08
0.0038512
-1.3063e-08
0.0038512
-6.7062e-09
0.0038512
-2.93463e-09
0.0038512
-7.16328e-10
0.0038512
5.71382e-10
0.0038512
1.30351e-09
0.0038512
1.70562e-09
0.0038512
1.91259e-09
0.0038512
2.00491e-09
0.0038512
2.03094e-09
0.0038512
2.01947e-09
0.0038512
1.98753e-09
0.0038512
1.94528e-09
0.0038512
1.89873e-09
0.0038512
1.85136e-09
0.0038512
1.80517e-09
0.0038512
1.76116e-09
0.0038512
1.71982e-09
0.0038512
1.68123e-09
0.0038512
1.64525e-09
0.0038512
1.61156e-09
0.0038512
1.57978e-09
0.0038512
1.5494e-09
0.0038512
1.51988e-09
0.0038512
1.49062e-09
0.0038512
1.46103e-09
0.0038512
1.43043e-09
0.0038512
1.39818e-09
0.0038512
1.36355e-09
0.0038512
1.32589e-09
0.0038512
1.28446e-09
0.0038512
1.23861e-09
0.0038512
1.18764e-09
0.0038512
1.13096e-09
0.0038512
1.06799e-09
0.0038512
9.98353e-10
0.0038512
9.21752e-10
0.0038512
8.38243e-10
0.0038512
7.48245e-10
0.0038512
6.52893e-10
0.0038512
5.54315e-10
0.0038512
4.56386e-10
0.0038512
3.65664e-10
0.0038512
2.93273e-10
0.0038512
2.57673e-10
0.0038512
2.89548e-10
0.0038512
4.39702e-10
0.0038512
7.91842e-10
0.0038512
1.48299e-09
0.0038512
2.73675e-09
0.0038512
4.91451e-09
0.0038512
8.59523e-09
0.0038512
1.46958e-08
0.0038512
2.46475e-08
0.0038512
4.06458e-08
0.0038512
6.59837e-08
0.00385121
1.05459e-07
0.00385121
1.65793e-07
0.00385121
2.55886e-07
0.00385121
3.86553e-07
0.00385122
5.69211e-07
0.00385123
8.13286e-07
0.00385126
1.12333e-06
0.00385131
1.49084e-06
0.00385142
1.815e-06
0.00385159
1.6247e-06
0.00385159
4.5031e-07
0.00385181
2.11413e-07
0.00385449
3.17688e-06
-3.21363e-07
0.0046472
-0.00134004
0.00434166
-0.00166167
0.00411776
-0.00179382
0.00396905
-0.00164128
0.00387598
-0.00135362
0.00382003
-0.00104284
0.0037866
-0.000771218
0.00376633
-0.000555202
0.00375375
-0.000391444
0.00374578
-0.000271175
0.00374065
-0.000184927
0.00373732
-0.000124373
0.00373514
-8.26216e-05
0.00373371
-5.42832e-05
0.00373278
-3.53106e-05
0.00373218
-2.27618e-05
0.00373179
-1.45515e-05
0.00373154
-9.23205e-06
0.00373138
-5.81611e-06
0.00373128
-3.6402e-06
0.00373122
-2.2644e-06
0.00373118
-1.4004e-06
0.00373115
-8.61188e-07
0.00373114
-5.26577e-07
0.00373113
-3.20042e-07
0.00373112
-1.93227e-07
0.00373112
-1.15725e-07
0.00373112
-6.85703e-08
0.00373111
-4.00046e-08
0.00373111
-2.27787e-08
0.00373111
-1.24405e-08
0.00373111
-6.26949e-09
0.00373111
-2.61084e-09
0.00373111
-4.61643e-10
0.00373111
7.83263e-10
0.00373111
1.48837e-09
0.00373111
1.87281e-09
0.00373111
2.06774e-09
0.00373111
2.15138e-09
0.00373111
2.17078e-09
0.00373111
2.15391e-09
0.00373111
2.11743e-09
0.00373111
2.07118e-09
0.00373111
2.02107e-09
0.00373111
1.97046e-09
0.00373111
1.92131e-09
0.00373111
1.87457e-09
0.00373111
1.83073e-09
0.00373111
1.78979e-09
0.00373111
1.75165e-09
0.00373111
1.71591e-09
0.00373111
1.6822e-09
0.00373111
1.64994e-09
0.00373111
1.61861e-09
0.00373111
1.58752e-09
0.00373111
1.5561e-09
0.00373111
1.52358e-09
0.00373111
1.48931e-09
0.00373111
1.45251e-09
0.00373111
1.4125e-09
0.00373111
1.36849e-09
0.00373111
1.31979e-09
0.00373111
1.26566e-09
0.00373111
1.20549e-09
0.00373111
1.13864e-09
0.00373111
1.06472e-09
0.00373111
9.8336e-10
0.00373111
8.94636e-10
0.00373111
7.9889e-10
0.00373111
6.97255e-10
0.00373111
5.91766e-10
0.00373111
4.86246e-10
0.00373111
3.87062e-10
0.00373111
3.05105e-10
0.00373111
2.58332e-10
0.00373111
2.76666e-10
0.00373111
4.09463e-10
0.00373111
7.38097e-10
0.00373111
1.39563e-09
0.00373111
2.59915e-09
0.00373111
4.69929e-09
0.00373111
8.25776e-09
0.00373111
1.41635e-08
0.00373112
2.38038e-08
0.00373112
3.93041e-08
0.00373112
6.38482e-08
0.00373112
1.02063e-07
0.00373113
1.60399e-07
0.00373114
2.47328e-07
0.00373115
3.72994e-07
0.00373117
5.47804e-07
0.00373121
7.7971e-07
0.00373126
1.07042e-06
0.00373135
1.40287e-06
0.0037315
1.66155e-06
0.0037317
1.42354e-06
0.00373177
3.84891e-07
0.00373202
-4.39208e-08
0.00373379
1.40401e-06
-1.20992e-06
0.00470831
-0.00104835
0.00442632
-0.00137968
0.0041914
-0.00155891
0.00401656
-0.00146643
0.003895
-0.00123206
0.00381395
-0.000961798
0.0037606
-0.000717867
0.00372542
-0.000520019
0.00370212
-0.000368144
0.00368664
-0.0002557
0.00367637
-0.000174655
0.00366957
-0.000117572
0.00366509
-7.81402e-05
0.00366215
-5.13477e-05
0.00366024
-3.34008e-05
0.00365901
-2.15282e-05
0.00365822
-1.37605e-05
0.00365772
-8.72842e-06
0.0036574
-5.49761e-06
0.0036572
-3.44005e-06
0.00365707
-2.13937e-06
0.00365699
-1.32272e-06
0.00365695
-8.13146e-07
0.00365692
-4.96978e-07
0.0036569
-3.01872e-07
0.00365689
-1.82099e-07
0.00365688
-1.08914e-07
0.00365688
-6.4394e-08
0.00365687
-3.74297e-08
0.00365687
-2.11745e-08
0.00365687
-1.14225e-08
0.00365687
-5.60472e-09
0.00365687
-2.15876e-09
0.00365687
-1.37868e-10
0.00365687
1.02926e-09
0.00365687
1.68683e-09
0.00365687
2.04166e-09
0.00365687
2.21767e-09
0.00365687
2.28877e-09
0.00365687
2.29945e-09
0.00365687
2.27612e-09
0.00365687
2.23463e-09
0.00365687
2.18425e-09
0.00365687
2.13064e-09
0.00365687
2.07694e-09
0.00365687
2.02505e-09
0.00365687
1.97581e-09
0.00365687
1.92969e-09
0.00365687
1.88664e-09
0.00365687
1.84655e-09
0.00365687
1.80897e-09
0.00365687
1.77354e-09
0.00365687
1.7396e-09
0.00365687
1.70664e-09
0.00365687
1.67392e-09
0.00365687
1.64085e-09
0.00365687
1.6066e-09
0.00365687
1.57053e-09
0.00365687
1.53178e-09
0.00365687
1.48968e-09
0.00365687
1.44334e-09
0.00365687
1.3921e-09
0.00365687
1.33512e-09
0.00365687
1.27182e-09
0.00365687
1.20146e-09
0.00365687
1.12367e-09
0.00365687
1.03801e-09
0.00365687
9.44535e-10
0.00365687
8.43515e-10
0.00365687