/*--------------------------------*- C++ -*----------------------------------*\
| =========                 |                                                 |
| \\      /  F ield         | foam-extend: Open Source CFD                    |
|  \\    /   O peration     | Version:     5.0                                |
|   \\  /    A nd           | Web:         http://www.foam-extend.org         |
|    \\/     M anipulation  |                                                 |
\*---------------------------------------------------------------------------*/
FoamFile
{
    version     2.0;
    format      ascii;
    class       volVectorField;
    location    "0.01";
    object      U;
}
// * * * * * * * * * * * * * * * * * * * * * * * * * * * * * * * * * * * * * //

dimensions      [0 1 -1 0 0 0 0];

internalField   nonuniform List<vector> 
4000
(
(0.459878 0.021314 0)
(0.866171 0.00535711 0)
(0.815636 0.00206112 0)
(0.809158 -0.00126984 0)
(0.827231 -0.00219725 0)
(0.844239 -0.00169549 0)
(0.855075 -0.00113818 0)
(0.86194 -0.000776935 0)
(0.866619 -0.000542185 0)
(0.869896 -0.000379783 0)
(0.87218 -0.000263905 0)
(0.873753 -0.000181597 0)
(0.874823 -0.000123435 0)
(0.875543 -8.30158e-05 0)
(0.876021 -5.51745e-05 0)
(0.876336 -3.63161e-05 0)
(0.876541 -2.36511e-05 0)
(0.876674 -1.5273e-05 0)
(0.876759 -9.77136e-06 0)
(0.876813 -6.20564e-06 0)
(0.876847 -3.90851e-06 0)
(0.876869 -2.44528e-06 0)
(0.876882 -1.51777e-06 0)
(0.87689 -9.35677e-07 0)
(0.876895 -5.71719e-07 0)
(0.876899 -3.45934e-07 0)
(0.8769 -2.06418e-07 0)
(0.876902 -1.20893e-07 0)
(0.876902 -6.86345e-08 0)
(0.876903 -3.69198e-08 0)
(0.876903 -1.77429e-08 0)
(0.876903 -6.25324e-09 0)
(0.876903 5.85168e-10 0)
(0.876903 4.60366e-09 0)
(0.876903 6.93165e-09 0)
(0.876903 8.24542e-09 0)
(0.876903 8.95707e-09 0)
(0.876903 9.31284e-09 0)
(0.876903 9.463e-09 0)
(0.876903 9.49555e-09 0)
(0.876903 9.46022e-09 0)
(0.876903 9.39253e-09 0)
(0.876903 9.30894e-09 0)
(0.876903 9.22085e-09 0)
(0.876903 9.1336e-09 0)
(0.876903 9.05087e-09 0)
(0.876903 8.97386e-09 0)
(0.876903 8.90327e-09 0)
(0.876903 8.83885e-09 0)
(0.876903 8.78011e-09 0)
(0.876903 8.7264e-09 0)
(0.876903 8.67665e-09 0)
(0.876903 8.63017e-09 0)
(0.876903 8.58566e-09 0)
(0.876903 8.54233e-09 0)
(0.876903 8.4987e-09 0)
(0.876903 8.45401e-09 0)
(0.876903 8.40674e-09 0)
(0.876903 8.35597e-09 0)
(0.876903 8.30021e-09 0)
(0.876903 8.23843e-09 0)
(0.876903 8.16921e-09 0)
(0.876903 8.0913e-09 0)
(0.876903 8.00357e-09 0)
(0.876903 7.90461e-09 0)
(0.876903 7.79377e-09 0)
(0.876903 7.66976e-09 0)
(0.876903 7.53297e-09 0)
(0.876903 7.38283e-09 0)
(0.876903 7.22211e-09 0)
(0.876903 7.05278e-09 0)
(0.876903 6.88328e-09 0)
(0.876903 6.72338e-09 0)
(0.876903 6.59596e-09 0)
(0.876903 6.53215e-09 0)
(0.876903 6.59507e-09 0)
(0.876903 6.87594e-09 0)
(0.876903 7.5349e-09 0)
(0.876903 8.83035e-09 0)
(0.876903 1.11825e-08 0)
(0.876903 1.52663e-08 0)
(0.876903 2.21527e-08 0)
(0.876903 3.35427e-08 0)
(0.876903 5.20296e-08 0)
(0.876902 8.1673e-08 0)
(0.876902 1.28387e-07 0)
(0.876901 2.01207e-07 0)
(0.876899 3.12654e-07 0)
(0.876897 4.81567e-07 0)
(0.876893 7.3323e-07 0)
(0.876887 1.10809e-06 0)
(0.876879 1.67415e-06 0)
(0.876867 2.65859e-06 0)
(0.876846 5.11572e-06 0)
(0.876772 1.20427e-05 0)
(0.876564 1.51199e-05 0)
(0.876623 -6.4071e-05 0)
(0.879525 -0.000340612 0)
(0.875174 0.000850944 0)
(0.870254 0.00107606 0)
(0.731105 0.00730452 0)
(1.55665 -0.00548495 0)
(1.57968 -0.00582473 0)
(1.59384 -0.00878537 0)
(1.63141 -0.0084617 0)
(1.66689 -0.00611565 0)
(1.69163 -0.004167 0)
(1.70812 -0.0028832 0)
(1.71938 -0.00201415 0)
(1.72716 -0.00140133 0)
(1.73251 -0.000966023 0)
(1.73616 -0.000658868 0)
(1.73861 -0.000444474 0)
(1.74025 -0.00029664 0)
(1.74134 -0.000195935 0)
(1.74204 -0.000128158 0)
(1.7425 -8.30596e-05 0)
(1.7428 -5.33741e-05 0)
(1.74299 -3.40273e-05 0)
(1.74311 -2.1535e-05 0)
(1.74318 -1.35366e-05 0)
(1.74323 -8.45559e-06 0)
(1.74326 -5.25086e-06 0)
(1.74327 -3.24332e-06 0)
(1.74328 -1.99304e-06 0)
(1.74329 -1.21833e-06 0)
(1.7433 -7.41034e-07 0)
(1.7433 -4.48475e-07 0)
(1.7433 -2.70005e-07 0)
(1.7433 -1.61617e-07 0)
(1.7433 -9.61131e-08 0)
(1.7433 -5.67502e-08 0)
(1.7433 -3.32476e-08 0)
(1.7433 -1.93345e-08 0)
(1.7433 -1.11937e-08 0)
(1.7433 -6.51945e-09 0)
(1.7433 -3.91329e-09 0)
(1.7433 -2.54102e-09 0)
(1.7433 -1.88871e-09 0)
(1.7433 -1.65992e-09 0)
(1.7433 -1.6776e-09 0)
(1.7433 -1.82476e-09 0)
(1.7433 -2.03915e-09 0)
(1.7433 -2.28332e-09 0)
(1.7433 -2.53428e-09 0)
(1.7433 -2.78012e-09 0)
(1.7433 -3.01328e-09 0)
(1.7433 -3.2315e-09 0)
(1.7433 -3.43336e-09 0)
(1.7433 -3.62028e-09 0)
(1.7433 -3.79313e-09 0)
(1.7433 -3.95509e-09 0)
(1.7433 -4.10782e-09 0)
(1.7433 -4.25511e-09 0)
(1.7433 -4.39955e-09 0)
(1.7433 -4.54533e-09 0)
(1.7433 -4.69505e-09 0)
(1.7433 -4.85306e-09 0)
(1.7433 -5.02251e-09 0)
(1.7433 -5.20781e-09 0)
(1.7433 -5.4118e-09 0)
(1.7433 -5.63892e-09 0)
(1.7433 -5.89202e-09 0)
(1.7433 -6.17493e-09 0)
(1.7433 -6.48989e-09 0)
(1.7433 -6.83954e-09 0)
(1.7433 -7.22408e-09 0)
(1.7433 -7.64329e-09 0)
(1.7433 -8.093e-09 0)
(1.7433 -8.56581e-09 0)
(1.7433 -9.04657e-09 0)
(1.7433 -9.51006e-09 0)
(1.7433 -9.91234e-09 0)
(1.7433 -1.01813e-08 0)
(1.7433 -1.01984e-08 0)
(1.7433 -9.76129e-09 0)
(1.7433 -8.54918e-09 0)
(1.7433 -6.03375e-09 0)
(1.7433 -1.34223e-09 0)
(1.7433 6.92517e-09 0)
(1.7433 2.10193e-08 0)
(1.7433 4.45346e-08 0)
(1.7433 8.31099e-08 0)
(1.7433 1.45525e-07 0)
(1.7433 2.45216e-07 0)
(1.7433 4.02387e-07 0)
(1.7433 6.46864e-07 0)
(1.74329 1.02172e-06 0)
(1.74329 1.58774e-06 0)
(1.74328 2.42787e-06 0)
(1.74327 3.64918e-06 0)
(1.74325 5.38414e-06 0)
(1.74322 7.95733e-06 0)
(1.74317 1.34662e-05 0)
(1.74304 2.98928e-05 0)
(1.7428 4.46862e-05 0)
(1.74317 -0.00012347 0)
(1.74765 -0.0007765 0)
(1.73588 0.00209951 0)
(1.73864 0.00264206 0)
(0.679399 -0.096458 0)
(1.58464 -0.0521159 0)
(1.67266 -0.0269904 0)
(1.72088 -0.022896 0)
(1.77364 -0.0196966 0)
(1.81734 -0.0144751 0)
(1.84755 -0.0100442 0)
(1.86785 -0.00694438 0)
(1.88173 -0.00481032 0)
(1.89126 -0.00331829 0)
(1.89775 -0.00227133 0)
(1.90214 -0.00153994 0)
(1.90508 -0.00103354 0)
(1.90702 -0.000686656 0)
(1.9083 -0.000451714 0)
(1.90913 -0.000294377 0)
(1.90967 -0.000190148 0)
(1.91001 -0.000121808 0)
(1.91023 -7.74268e-05 0)
(1.91036 -4.88606e-05 0)
(1.91045 -3.06242e-05 0)
(1.9105 -1.90705e-05 0)
(1.91053 -1.18017e-05 0)
(1.91055 -7.25882e-06 0)
(1.91057 -4.43592e-06 0)
(1.91057 -2.69081e-06 0)
(1.91058 -1.61793e-06 0)
(1.91058 -9.61677e-07 0)
(1.91058 -5.62187e-07 0)
(1.91058 -3.20186e-07 0)
(1.91059 -1.74357e-07 0)
(1.91059 -8.6991e-08 0)
(1.91059 -3.50145e-08 0)
(1.91059 -4.38978e-09 0)
(1.91059 1.34194e-08 0)
(1.91059 2.35524e-08 0)
(1.91059 2.91282e-08 0)
(1.91059 3.19975e-08 0)
(1.91059 3.32959e-08 0)
(1.91059 3.36753e-08 0)
(1.91059 3.35377e-08 0)
(1.91059 3.31266e-08 0)
(1.91059 3.25847e-08 0)
(1.91059 3.19865e-08 0)
(1.91059 3.13865e-08 0)
(1.91059 3.08036e-08 0)
(1.91059 3.02585e-08 0)
(1.91059 2.97494e-08 0)
(1.91059 2.92837e-08 0)
(1.91059 2.8852e-08 0)
(1.91059 2.8457e-08 0)
(1.91059 2.80854e-08 0)
(1.91059 2.77387e-08 0)
(1.91059 2.74021e-08 0)
(1.91059 2.70752e-08 0)
(1.91059 2.67426e-08 0)
(1.91059 2.64038e-08 0)
(1.91059 2.6043e-08 0)
(1.91059 2.56583e-08 0)
(1.91059 2.52338e-08 0)
(1.91059 2.47681e-08 0)
(1.91059 2.4245e-08 0)
(1.91059 2.36629e-08 0)
(1.91059 2.30066e-08 0)
(1.91059 2.22753e-08 0)
(1.91059 2.1456e-08 0)
(1.91059 2.05519e-08 0)
(1.91059 1.95557e-08 0)
(1.91059 1.84796e-08 0)
(1.91059 1.73312e-08 0)
(1.91059 1.61462e-08 0)
(1.91059 1.49706e-08 0)
(1.91059 1.39031e-08 0)
(1.91059 1.30928e-08 0)
(1.91059 1.28064e-08 0)
(1.91059 1.34739e-08 0)
(1.91059 1.58168e-08 0)
(1.91059 2.10097e-08 0)
(1.91059 3.10011e-08 0)
(1.91059 4.89297e-08 0)
(1.91059 7.98827e-08 0)
(1.91059 1.31969e-07 0)
(1.91059 2.1803e-07 0)
(1.91059 3.58092e-07 0)
(1.91058 5.82961e-07 0)
(1.91058 9.39202e-07 0)
(1.91058 1.49594e-06 0)
(1.91058 2.35369e-06 0)
(1.91057 3.65597e-06 0)
(1.91056 5.60426e-06 0)
(1.91055 8.47995e-06 0)
(1.91052 1.26956e-05 0)
(1.91049 1.90883e-05 0)
(1.91044 3.04982e-05 0)
(1.91033 5.23794e-05 0)
(1.9101 4.51016e-05 0)
(1.91044 -0.000235951 0)
(1.91478 -0.000841389 0)
(1.89924 0.00309301 0)
(1.91497 0.00354571 0)
(0.55097 -0.172247 0)
(1.38995 -0.103248 0)
(1.48118 -0.0583399 0)
(1.54118 -0.0421002 0)
(1.6004 -0.0324795 0)
(1.6464 -0.0234283 0)
(1.67757 -0.0163275 0)
(1.69849 -0.0113098 0)
(1.71279 -0.00781515 0)
(1.72258 -0.00536845 0)
(1.72923 -0.00365789 0)
(1.73369 -0.00246909 0)
(1.73666 -0.00165028 0)
(1.73862 -0.00109222 0)
(1.7399 -0.000715992 0)
(1.74073 -0.000465115 0)
(1.74126 -0.00029956 0)
(1.7416 -0.000191392 0)
(1.74181 -0.000121368 0)
(1.74195 -7.64273e-05 0)
(1.74203 -4.78126e-05 0)
(1.74208 -2.97273e-05 0)
(1.74212 -1.8374e-05 0)
(1.74214 -1.12922e-05 0)
(1.74215 -6.89964e-06 0)
(1.74216 -4.18887e-06 0)
(1.74216 -2.52477e-06 0)
(1.74216 -1.5082e-06 0)
(1.74216 -8.90042e-07 0)
(1.74217 -5.15955e-07 0)
(1.74217 -2.90707e-07 0)
(1.74217 -1.55805e-07 0)
(1.74217 -7.55303e-08 0)
(1.74217 -2.81847e-08 0)
(1.74217 -5.84489e-10 0)
(1.74217 1.51784e-08 0)
(1.74217 2.39198e-08 0)
(1.74217 2.84887e-08 0)
(1.74217 3.06192e-08 0)
(1.74217 3.13182e-08 0)
(1.74217 3.12182e-08 0)
(1.74217 3.06795e-08 0)
(1.74217 2.99271e-08 0)
(1.74217 2.9075e-08 0)
(1.74217 2.82103e-08 0)
(1.74217 2.73611e-08 0)
(1.74217 2.65626e-08 0)
(1.74217 2.58109e-08 0)
(1.74217 2.51212e-08 0)
(1.74217 2.44773e-08 0)
(1.74217 2.38867e-08 0)
(1.74217 2.33278e-08 0)
(1.74217 2.28053e-08 0)
(1.74217 2.22951e-08 0)
(1.74217 2.17994e-08 0)
(1.74217 2.12933e-08 0)
(1.74217 2.07783e-08 0)
(1.74217 2.02284e-08 0)
(1.74217 1.96441e-08 0)
(1.74217 1.89991e-08 0)
(1.74217 1.82939e-08 0)
(1.74217 1.75021e-08 0)
(1.74217 1.66246e-08 0)
(1.74217 1.56364e-08 0)
(1.74217 1.45401e-08 0)
(1.74217 1.33144e-08 0)
(1.74217 1.1968e-08 0)
(1.74217 1.04886e-08 0)
(1.74217 8.89898e-09 0)
(1.74217 7.21003e-09 0)
(1.74217 5.48068e-09 0)
(1.74217 3.78081e-09 0)
(1.74217 2.26532e-09 0)
(1.74217 1.16174e-09 0)
(1.74217 8.84459e-10 0)
(1.74217 2.0806e-09 0)
(1.74217 5.867e-09 0)
(1.74217 1.4049e-08 0)
(1.74217 2.96037e-08 0)
(1.74217 5.73522e-08 0)
(1.74217 1.05122e-07 0)
(1.74217 1.85384e-07 0)
(1.74217 3.17941e-07 0)
(1.74217 5.33707e-07 0)
(1.74217 8.80305e-07 0)
(1.74216 1.42976e-06 0)
(1.74216 2.28901e-06 0)
(1.74216 3.61308e-06 0)
(1.74215 5.6217e-06 0)
(1.74214 8.61757e-06 0)
(1.74213 1.30059e-05 0)
(1.74211 1.93196e-05 0)
(1.74208 2.84059e-05 0)
(1.74204 4.25076e-05 0)
(1.74194 6.39961e-05 0)
(1.74169 4.76787e-05 0)
(1.74192 -0.000223723 0)
(1.74616 -0.000595944 0)
(1.72912 0.00287929 0)
(1.75105 0.00303148 0)
(0.44689 -0.206222 0)
(1.20161 -0.137689 0)
(1.25681 -0.0865465 0)
(1.30455 -0.0616039 0)
(1.36035 -0.0455613 0)
(1.40434 -0.0324549 0)
(1.43396 -0.0226211 0)
(1.45386 -0.0156755 0)
(1.4675 -0.0108163 0)
(1.47686 -0.00741124 0)
(1.4832 -0.00503505 0)
(1.48746 -0.00338858 0)
(1.49028 -0.00225839 0)
(1.49214 -0.00149068 0)
(1.49335 -0.000974791 0)
(1.49413 -0.000631795 0)
(1.49462 -0.000406068 0)
(1.49494 -0.000258949 0)
(1.49514 -0.000163924 0)
(1.49527 -0.000103061 0)
(1.49535 -6.43806e-05 0)
(1.4954 -3.99741e-05 0)
(1.49543 -2.46763e-05 0)
(1.49544 -1.51473e-05 0)
(1.49545 -9.2442e-06 0)
(1.49546 -5.60581e-06 0)
(1.49547 -3.37476e-06 0)
(1.49547 -2.01322e-06 0)
(1.49547 -1.18605e-06 0)
(1.49547 -6.85905e-07 0)
(1.49547 -3.84986e-07 0)
(1.49547 -2.04884e-07 0)
(1.49547 -9.77731e-08 0)
(1.49547 -3.46067e-08 0)
(1.49547 2.21611e-09 0)
(1.49547 2.32629e-08 0)
(1.49547 3.49515e-08 0)
(1.49547 4.10893e-08 0)
(1.49547 4.39665e-08 0)
(1.49547 4.49426e-08 0)
(1.49547 4.48612e-08 0)
(1.49547 4.41884e-08 0)
(1.49547 4.32243e-08 0)
(1.49547 4.21256e-08 0)
(1.49547 4.10034e-08 0)
(1.49547 3.99003e-08 0)
(1.49547 3.88581e-08 0)
(1.49547 3.78769e-08 0)
(1.49547 3.69726e-08 0)
(1.49547 3.61289e-08 0)
(1.49547 3.53512e-08 0)
(1.49547 3.46165e-08 0)
(1.49547 3.39255e-08 0)
(1.49547 3.3252e-08 0)
(1.49547 3.25944e-08 0)
(1.49547 3.1925e-08 0)
(1.49547 3.12408e-08 0)
(1.49547 3.05127e-08 0)
(1.49547 2.9737e-08 0)
(1.49547 2.88841e-08 0)
(1.49547 2.79496e-08 0)
(1.49547 2.69041e-08 0)
(1.49547 2.5744e-08 0)
(1.49547 2.44413e-08 0)
(1.49547 2.29952e-08 0)
(1.49547 2.13829e-08 0)
(1.49547 1.96108e-08 0)
(1.49547 1.7668e-08 0)
(1.49547 1.55801e-08 0)
(1.49547 1.33662e-08 0)
(1.49547 1.10998e-08 0)
(1.49547 8.87781e-09 0)
(1.49547 6.90025e-09 0)
(1.49547 5.47277e-09 0)
(1.49547 5.13989e-09 0)
(1.49547 6.75884e-09 0)
(1.49547 1.18125e-08 0)
(1.49547 2.27044e-08 0)
(1.49547 4.33771e-08 0)
(1.49547 8.02527e-08 0)
(1.49547 1.43743e-07 0)
(1.49547 2.50479e-07 0)
(1.49547 4.26863e-07 0)
(1.49547 7.14165e-07 0)
(1.49547 1.17598e-06 0)
(1.49547 1.90851e-06 0)
(1.49547 3.05436e-06 0)
(1.49546 4.81967e-06 0)
(1.49546 7.49405e-06 0)
(1.49545 1.14695e-05 0)
(1.49544 1.72503e-05 0)
(1.49542 2.54438e-05 0)
(1.49539 3.68513e-05 0)
(1.49536 5.32632e-05 0)
(1.49527 7.56995e-05 0)
(1.495 6.21329e-05 0)
(1.49519 -0.000164815 0)
(1.49966 -0.000359278 0)
(1.48193 0.00240242 0)
(1.50609 0.00233295 0)
(0.380443 -0.208752 0)
(1.0695 -0.154672 0)
(1.07837 -0.107297 0)
(1.10217 -0.0779707 0)
(1.14782 -0.0571001 0)
(1.18633 -0.0405849 0)
(1.21244 -0.0283571 0)
(1.23007 -0.0196843 0)
(1.24225 -0.0135837 0)
(1.25065 -0.00929794 0)
(1.25636 -0.00630669 0)
(1.26019 -0.00423648 0)
(1.26273 -0.00281805 0)
(1.2644 -0.00185659 0)
(1.26548 -0.00121189 0)
(1.26618 -0.00078416 0)
(1.26663 -0.000503221 0)
(1.26691 -0.00032045 0)
(1.26709 -0.000202594 0)
(1.2672 -0.000127223 0)
(1.26727 -7.93879e-05 0)
(1.26731 -4.92436e-05 0)
(1.26734 -3.03711e-05 0)
(1.26736 -1.86274e-05 0)
(1.26737 -1.13593e-05 0)
(1.26737 -6.8838e-06 0)
(1.26738 -4.14172e-06 0)
(1.26738 -2.46957e-06 0)
(1.26738 -1.45441e-06 0)
(1.26738 -8.40955e-07 0)
(1.26738 -4.72043e-07 0)
(1.26738 -2.51345e-07 0)
(1.26738 -1.2013e-07 0)
(1.26738 -4.27408e-08 0)
(1.26738 2.37714e-09 0)
(1.26738 2.81867e-08 0)
(1.26738 4.25396e-08 0)
(1.26738 5.01021e-08 0)
(1.26738 5.36673e-08 0)
(1.26738 5.49131e-08 0)
(1.26738 5.48643e-08 0)
(1.26738 5.40845e-08 0)
(1.26738 5.29405e-08 0)
(1.26738 5.16291e-08 0)
(1.26738 5.0282e-08 0)
(1.26738 4.89558e-08 0)
(1.26738 4.76977e-08 0)
(1.26738 4.65125e-08 0)
(1.26738 4.54159e-08 0)
(1.26738 4.43927e-08 0)
(1.26738 4.34455e-08 0)
(1.26738 4.25511e-08 0)
(1.26738 4.17062e-08 0)
(1.26738 4.08833e-08 0)
(1.26738 4.00767e-08 0)
(1.26738 3.92572e-08 0)
(1.26738 3.8417e-08 0)
(1.26738 3.75252e-08 0)
(1.26738 3.6573e-08 0)
(1.26738 3.55293e-08 0)
(1.26738 3.43844e-08 0)
(1.26738 3.31071e-08 0)
(1.26738 3.1689e-08 0)
(1.26738 3.01008e-08 0)
(1.26738 2.83377e-08 0)
(1.26738 2.63764e-08 0)
(1.26738 2.4221e-08 0)
(1.26738 2.1863e-08 0)
(1.26738 1.93294e-08 0)
(1.26738 1.66484e-08 0)
(1.26738 1.39054e-08 0)
(1.26738 1.1223e-08 0)
(1.26738 8.84056e-09 0)
(1.26738 7.13426e-09 0)
(1.26738 6.76245e-09 0)
(1.26738 8.77607e-09 0)
(1.26738 1.49773e-08 0)
(1.26738 2.82991e-08 0)
(1.26738 5.35484e-08 0)
(1.26738 9.85706e-08 0)
(1.26738 1.76074e-07 0)
(1.26738 3.06386e-07 0)
(1.26738 5.21774e-07 0)
(1.26738 8.72699e-07 0)
(1.26738 1.4369e-06 0)
(1.26738 2.33188e-06 0)
(1.26738 3.73148e-06 0)
(1.26737 5.88586e-06 0)
(1.26737 9.14325e-06 0)
(1.26736 1.39663e-05 0)
(1.26735 2.09282e-05 0)
(1.26734 3.06682e-05 0)
(1.26732 4.39161e-05 0)
(1.26729 6.21357e-05 0)
(1.2672 8.57034e-05 0)
(1.26691 7.78273e-05 0)
(1.26712 -9.86642e-05 0)
(1.27192 -0.000177864 0)
(1.25381 0.00184446 0)
(1.27836 0.00162972 0)
(0.345217 -0.193149 0)
(0.993878 -0.157459 0)
(0.960635 -0.119316 0)
(0.957507 -0.0896872 0)
(0.989613 -0.0661623 0)
(1.0205 -0.0472858 0)
(1.04174 -0.0332108 0)
(1.0562 -0.0231285 0)
(1.06633 -0.0159825 0)
(1.0734 -0.0109418 0)
(1.07823 -0.00741729 0)
(1.08148 -0.00497747 0)
(1.08363 -0.00330693 0)
(1.08504 -0.0021759 0)
(1.08596 -0.00141853 0)
(1.08655 -0.000916753 0)
(1.08693 -0.000587643 0)
(1.08717 -0.000373814 0)
(1.08732 -0.000236102 0)
(1.08741 -0.000148133 0)
(1.08747 -9.23603e-05 0)
(1.08751 -5.72471e-05 0)
(1.08753 -3.52831e-05 0)
(1.08754 -2.1626e-05 0)
(1.08755 -1.31798e-05 0)
(1.08756 -7.98252e-06 0)
(1.08756 -4.80027e-06 0)
(1.08756 -2.86085e-06 0)
(1.08756 -1.68406e-06 0)
(1.08756 -9.73239e-07 0)
(1.08756 -5.45939e-07 0)
(1.08756 -2.904e-07 0)
(1.08756 -1.38504e-07 0)
(1.08756 -4.89233e-08 0)
(1.08756 3.29612e-09 0)
(1.08756 3.31778e-08 0)
(1.08756 4.98015e-08 0)
(1.08756 5.85707e-08 0)
(1.08756 6.27162e-08 0)
(1.08756 6.41821e-08 0)
(1.08756 6.41439e-08 0)
(1.08756 6.32589e-08 0)
(1.08756 6.19473e-08 0)
(1.08756 6.04408e-08 0)
(1.08756 5.88877e-08 0)
(1.08756 5.7358e-08 0)
(1.08756 5.59023e-08 0)
(1.08756 5.45309e-08 0)
(1.08756 5.32577e-08 0)
(1.08756 5.20697e-08 0)
(1.08756 5.09662e-08 0)
(1.08756 4.99245e-08 0)
(1.08756 4.89368e-08 0)
(1.08756 4.79756e-08 0)
(1.08756 4.70304e-08 0)
(1.08756 4.60716e-08 0)
(1.08756 4.50859e-08 0)
(1.08756 4.40419e-08 0)
(1.08756 4.29255e-08 0)
(1.08756 4.17046e-08 0)
(1.08756 4.03641e-08 0)
(1.08756 3.88722e-08 0)
(1.08756 3.72152e-08 0)
(1.08756 3.53635e-08 0)
(1.08756 3.33077e-08 0)
(1.08756 3.1025e-08 0)
(1.08756 2.85167e-08 0)
(1.08756 2.57769e-08 0)
(1.08756 2.28335e-08 0)
(1.08756 1.9723e-08 0)
(1.08756 1.65401e-08 0)
(1.08756 1.34304e-08 0)
(1.08756 1.06661e-08 0)
(1.08756 8.68457e-09 0)
(1.08756 8.23994e-09 0)
(1.08756 1.05522e-08 0)
(1.08756 1.76918e-08 0)
(1.08756 3.30422e-08 0)
(1.08756 6.21499e-08 0)
(1.08756 1.14072e-07 0)
(1.08756 2.03471e-07 0)
(1.08756 3.5382e-07 0)
(1.08756 6.02372e-07 0)
(1.08756 1.00738e-06 0)
(1.08756 1.65854e-06 0)
(1.08756 2.6913e-06 0)
(1.08756 4.30549e-06 0)
(1.08756 6.78736e-06 0)
(1.08755 1.05316e-05 0)
(1.08755 1.60534e-05 0)
(1.08754 2.39705e-05 0)
(1.08753 3.49311e-05 0)
(1.08751 4.96055e-05 0)
(1.0875 6.92276e-05 0)
(1.08742 9.36129e-05 0)
(1.08711 9.02109e-05 0)
(1.08738 -4.51246e-05 0)
(1.09248 -6.35157e-05 0)
(1.07409 0.00133266 0)
(1.09831 0.00104759 0)
(0.330981 -0.169062 0)
(0.960521 -0.150516 0)
(0.894768 -0.123511 0)
(0.866631 -0.0964585 0)
(0.884397 -0.0723182 0)
(0.90668 -0.0522273 0)
(0.922263 -0.0369568 0)
(0.933012 -0.0258567 0)
(0.940696 -0.0179118 0)
(0.946154 -0.0122761 0)
(0.94992 -0.00832332 0)
(0.952464 -0.00558341 0)
(0.954155 -0.003707 0)
(0.955264 -0.00243712 0)
(0.955984 -0.00158743 0)
(0.956447 -0.001025 0)
(0.956743 -0.000656475 0)
(0.95693 -0.000417267 0)
(0.957047 -0.00026335 0)
(0.95712 -0.000165114 0)
(0.957166 -0.000102882 0)
(0.957194 -6.37311e-05 0)
(0.957211 -3.92576e-05 0)
(0.957222 -2.40491e-05 0)
(0.957228 -1.46485e-05 0)
(0.957232 -8.86736e-06 0)
(0.957235 -5.32936e-06 0)
(0.957236 -3.17415e-06 0)
(0.957237 -1.86699e-06 0)
(0.957237 -1.07769e-06 0)
(0.957238 -6.03366e-07 0)
(0.957238 -3.19791e-07 0)
(0.957238 -1.51277e-07 0)
(0.957238 -5.19253e-08 0)
(0.957238 5.96936e-09 0)
(0.957238 3.90891e-08 0)
(0.957238 5.7501e-08 0)
(0.957238 6.72033e-08 0)
(0.957238 7.17806e-08 0)
(0.957238 7.33878e-08 0)
(0.957238 7.33209e-08 0)
(0.957238 7.23176e-08 0)
(0.957238 7.08388e-08 0)
(0.957238 6.91451e-08 0)
(0.957238 6.73974e-08 0)
(0.957238 6.56771e-08 0)
(0.957238 6.40369e-08 0)
(0.957238 6.24919e-08 0)
(0.957238 6.10542e-08 0)
(0.957238 5.97128e-08 0)
(0.957238 5.84634e-08 0)
(0.957238 5.72842e-08 0)
(0.957238 5.61629e-08 0)
(0.957238 5.50726e-08 0)
(0.957238 5.39976e-08 0)
(0.957238 5.29082e-08 0)
(0.957238 5.17862e-08 0)
(0.957238 5.05996e-08 0)
(0.957238 4.93292e-08 0)
(0.957238 4.79424e-08 0)
(0.957238 4.64188e-08 0)
(0.957238 4.47262e-08 0)
(0.957238 4.28458e-08 0)
(0.957238 4.07479e-08 0)
(0.957238 3.84186e-08 0)
(0.957238 3.5836e-08 0)
(0.957238 3.29978e-08 0)
(0.957238 2.99012e-08 0)
(0.957238 2.65736e-08 0)
(0.957238 2.30589e-08 0)
(0.957238 1.94589e-08 0)
(0.957238 1.5938e-08 0)
(0.957238 1.27943e-08 0)
(0.957238 1.05153e-08 0)
(0.957238 9.93119e-09 0)
(0.957238 1.23988e-08 0)
(0.957238 2.02022e-08 0)
(0.957238 3.7086e-08 0)
(0.957238 6.9188e-08 0)
(0.957238 1.26534e-07 0)
(0.957238 2.25345e-07 0)
(0.957238 3.91606e-07 0)
(0.957238 6.66538e-07 0)
(0.957238 1.11459e-06 0)
(0.957237 1.83491e-06 0)
(0.957236 2.97704e-06 0)
(0.957235 4.76101e-06 0)
(0.957233 7.5004e-06 0)
(0.95723 1.16236e-05 0)
(0.957226 1.76807e-05 0)
(0.95722 2.63115e-05 0)
(0.957211 3.81546e-05 0)
(0.957203 5.38182e-05 0)
(0.957194 7.42879e-05 0)
(0.957119 9.85635e-05 0)
(0.95681 9.69695e-05 0)
(0.957144 -8.58718e-06 0)
(0.962478 -3.04141e-06 0)
(0.94386 0.000919296 0)
(0.967552 0.000619391 0)
(0.329073 -0.142568 0)
(0.954144 -0.137881 0)
(0.866127 -0.121605 0)
(0.817144 -0.0987231 0)
(0.821417 -0.0755428 0)
(0.834991 -0.0552839 0)
(0.844634 -0.0394753 0)
(0.851368 -0.0277759 0)
(0.856365 -0.0193044 0)
(0.860036 -0.0132543 0)
(0.862615 -0.00899338 0)
(0.864372 -0.00603354 0)
(0.865544 -0.00400475 0)
(0.866314 -0.00263157 0)
(0.866813 -0.00171306 0)
(0.867134 -0.00110542 0)
(0.867338 -0.000707529 0)
(0.867467 -0.000449441 0)
(0.867548 -0.000283492 0)
(0.867599 -0.000177645 0)
(0.86763 -0.000110634 0)
(0.867649 -6.85002e-05 0)
(0.867661 -4.21761e-05 0)
(0.867668 -2.5825e-05 0)
(0.867672 -1.57225e-05 0)
(0.867675 -9.51263e-06 0)
(0.867677 -5.71381e-06 0)
(0.867678 -3.40058e-06 0)
(0.867678 -1.99807e-06 0)
(0.867679 -1.15146e-06 0)
(0.867679 -6.42848e-07 0)
(0.867679 -3.38858e-07 0)
(0.867679 -1.58274e-07 0)
(0.867679 -5.18549e-08 0)
(0.867679 1.0119e-08 0)
(0.867679 4.55417e-08 0)
(0.867679 6.51985e-08 0)
(0.867679 7.55235e-08 0)
(0.867679 8.03594e-08 0)
(0.867679 8.20148e-08 0)
(0.867679 8.18727e-08 0)
(0.867679 8.07317e-08 0)
(0.867679 7.90819e-08 0)
(0.867679 7.72052e-08 0)
(0.867679 7.52718e-08 0)
(0.867679 7.33715e-08 0)
(0.867679 7.15583e-08 0)
(0.867679 6.9851e-08 0)
(0.867679 6.82597e-08 0)
(0.867679 6.67752e-08 0)
(0.867679 6.53896e-08 0)
(0.867679 6.4082e-08 0)
(0.867679 6.2836e-08 0)
(0.867679 6.16249e-08 0)
(0.867679 6.04284e-08 0)
(0.867679 5.9217e-08 0)
(0.867679 5.79673e-08 0)
(0.867679 5.66473e-08 0)
(0.867679 5.52327e-08 0)
(0.867679 5.36906e-08 0)
(0.867679 5.19957e-08 0)
(0.867679 5.01155e-08 0)
(0.867679 4.80261e-08 0)
(0.867679 4.56982e-08 0)
(0.867679 4.31132e-08 0)
(0.867679 4.025e-08 0)
(0.867679 3.71031e-08 0)
(0.867679 3.36721e-08 0)
(0.867679 2.99831e-08 0)
(0.867679 2.60861e-08 0)
(0.867679 2.20874e-08 0)
(0.867679 1.8166e-08 0)
(0.867679 1.46386e-08 0)
(0.867679 1.20297e-08 0)
(0.867679 1.12249e-08 0)
(0.867679 1.36816e-08 0)
(0.867679 2.18385e-08 0)
(0.867679 3.97017e-08 0)
(0.867679 7.38379e-08 0)
(0.867679 1.34972e-07 0)
(0.867679 2.40449e-07 0)
(0.867679 4.18065e-07 0)
(0.867679 7.11891e-07 0)
(0.867679 1.19081e-06 0)
(0.867679 1.9607e-06 0)
(0.867678 3.18103e-06 0)
(0.867677 5.08576e-06 0)
(0.867676 8.00667e-06 0)
(0.867674 1.23929e-05 0)
(0.867671 1.88119e-05 0)
(0.867667 2.79053e-05 0)
(0.867663 4.02836e-05 0)
(0.86766 5.64729e-05 0)
(0.867659 7.7131e-05 0)
(0.867591 0.00010017 0)
(0.867284 9.79143e-05 0)
(0.867682 1.27095e-05 0)
(0.873179 2.08531e-05 0)
(0.854352 0.000604332 0)
(0.877551 0.000324754 0)
(0.333448 -0.117178 0)
(0.962804 -0.122478 0)
(0.861272 -0.115351 0)
(0.796164 -0.0972287 0)
(0.788657 -0.0760543 0)
(0.794003 -0.0564798 0)
(0.797786 -0.0407317 0)
(0.800431 -0.0288421 0)
(0.802634 -0.0201221 0)
(0.804422 -0.0138474 0)
(0.805739 -0.00940682 0)
(0.806656 -0.00631379 0)
(0.807274 -0.00419082 0)
(0.807681 -0.00275316 0)
(0.807944 -0.00179152 0)
(0.808113 -0.00115552 0)
(0.808219 -0.000739244 0)
(0.808287 -0.000469364 0)
(0.808328 -0.000295922 0)
(0.808354 -0.000185353 0)
(0.80837 -0.000115387 0)
(0.80838 -7.14142e-05 0)
(0.808386 -4.39531e-05 0)
(0.80839 -2.69018e-05 0)
(0.808392 -1.63704e-05 0)
(0.808393 -9.89938e-06 0)
(0.808394 -5.94217e-06 0)
(0.808395 -3.53323e-06 0)
(0.808395 -2.07312e-06 0)
(0.808395 -1.19199e-06 0)
(0.808395 -6.62791e-07 0)
(0.808395 -3.46593e-07 0)
(0.808395 -1.58837e-07 0)
(0.808395 -4.82589e-08 0)
(0.808395 1.60745e-08 0)
(0.808395 5.27899e-08 0)
(0.808395 7.31036e-08 0)
(0.808395 8.37129e-08 0)
(0.808395 8.86164e-08 0)
(0.808395 9.02155e-08 0)
(0.808395 8.99447e-08 0)
(0.808395 8.86417e-08 0)
(0.808395 8.68132e-08 0)
(0.808395 8.47554e-08 0)
(0.808395 8.26429e-08 0)
(0.808395 8.05719e-08 0)
(0.808395 7.85958e-08 0)
(0.808395 7.67366e-08 0)
(0.808395 7.50018e-08 0)
(0.808395 7.33839e-08 0)
(0.808395 7.18714e-08 0)
(0.808395 7.04441e-08 0)
(0.808395 6.9082e-08 0)
(0.808395 6.77583e-08 0)
(0.808395 6.64486e-08 0)
(0.808395 6.51233e-08 0)
(0.808395 6.37545e-08 0)
(0.808395 6.23101e-08 0)
(0.808395 6.0761e-08 0)
(0.808395 5.90741e-08 0)
(0.808395 5.72193e-08 0)
(0.808395 5.51639e-08 0)
(0.808395 5.28796e-08 0)
(0.808395 5.0337e-08 0)
(0.808395 4.75132e-08 0)
(0.808395 4.43878e-08 0)
(0.808395 4.0952e-08 0)
(0.808395 3.72069e-08 0)
(0.808395 3.31772e-08 0)
(0.808395 2.8917e-08 0)
(0.808395 2.45345e-08 0)
(0.808395 2.02187e-08 0)
(0.808395 1.62969e-08 0)
(0.808395 1.33172e-08 0)
(0.808395 1.21983e-08 0)
(0.808395 1.44593e-08 0)
(0.808395 2.26303e-08 0)
(0.808395 4.0874e-08 0)
(0.808395 7.60117e-08 0)
(0.808395 1.3918e-07 0)
(0.808395 2.48389e-07 0)
(0.808395 4.32495e-07 0)
(0.808395 7.37233e-07 0)
(0.808395 1.23406e-06 0)
(0.808395 2.03271e-06 0)
(0.808395 3.29819e-06 0)
(0.808395 5.27194e-06 0)
(0.808394 8.29461e-06 0)
(0.808393 1.28233e-05 0)
(0.808392 1.94263e-05 0)
(0.80839 2.87288e-05 0)
(0.80839 4.12953e-05 0)
(0.808392 5.75434e-05 0)
(0.808399 7.772e-05 0)
(0.808337 9.85286e-05 0)
(0.808034 9.4007e-05 0)
(0.808488 2.24818e-05 0)
(0.814086 2.29845e-05 0)
(0.795075 0.000375132 0)
(0.817883 0.000134781 0)
(0.34036 -0.0945601 0)
(0.978434 -0.106281 0)
(0.869976 -0.106259 0)
(0.793156 -0.0927875 0)
(0.775893 -0.0741974 0)
(0.773835 -0.0559363 0)
(0.772091 -0.0407549 0)
(0.770742 -0.029051 0)
(0.770161 -0.020352 0)
(0.770041 -0.0140419 0)
(0.770067 -0.00955265 0)
(0.770121 -0.00641612 0)
(0.770167 -0.00425969 0)
(0.770198 -0.00279822 0)
(0.770218 -0.00182042 0)
(0.770229 -0.00117379 0)
(0.770235 -0.000750658 0)
(0.770238 -0.000476434 0)
(0.77024 -0.000300269 0)
(0.770241 -0.000188009 0)
(0.770241 -0.000116999 0)
(0.770241 -7.23875e-05 0)
(0.770241 -4.45365e-05 0)
(0.770241 -2.72481e-05 0)
(0.770241 -1.65732e-05 0)
(0.770241 -1.00163e-05 0)
(0.770241 -6.0077e-06 0)
(0.770241 -3.56808e-06 0)
(0.770241 -2.08974e-06 0)
(0.770241 -1.19787e-06 0)
(0.770241 -6.62375e-07 0)
(0.770241 -3.42526e-07 0)
(0.77024 -1.52699e-07 0)
(0.77024 -4.09938e-08 0)
(0.77024 2.39072e-08 0)
(0.77024 6.08626e-08 0)
(0.77024 8.12195e-08 0)
(0.77024 9.17596e-08 0)
(0.77024 9.65307e-08 0)
(0.77024 9.79635e-08 0)
(0.77024 9.75076e-08 0)
(0.77024 9.60162e-08 0)
(0.77024 9.40004e-08 0)
(0.77024 9.17624e-08 0)
(0.77024 8.94772e-08 0)
(0.77024 8.72442e-08 0)
(0.77024 8.51155e-08 0)
(0.77024 8.31147e-08 0)
(0.77024 8.12467e-08 0)
(0.77024 7.9505e-08 0)
(0.77024 7.78751e-08 0)
(0.77024 7.63371e-08 0)
(0.77024 7.48675e-08 0)
(0.77024 7.34396e-08 0)
(0.77024 7.20252e-08 0)
(0.77024 7.05945e-08 0)
(0.77024 6.91155e-08 0)
(0.77024 6.75559e-08 0)
(0.77024 6.58822e-08 0)
(0.77024 6.40611e-08 0)
(0.77024 6.20582e-08 0)
(0.77024 5.98405e-08 0)
(0.77024 5.73755e-08 0)
(0.77024 5.46337e-08 0)
(0.77024 5.15883e-08 0)
(0.77024 4.82193e-08 0)
(0.77024 4.45143e-08 0)
(0.77024 4.04757e-08 0)
(0.77024 3.61259e-08 0)
(0.77024 3.15212e-08 0)
(0.77024 2.67695e-08 0)
(0.77024 2.20643e-08 0)
(0.77024 1.77357e-08 0)
(0.77024 1.43414e-08 0)
(0.770241 1.28098e-08 0)
(0.770241 1.46819e-08 0)
(0.770241 2.25139e-08 0)
(0.770241 4.05161e-08 0)
(0.770241 7.55834e-08 0)
(0.770241 1.3897e-07 0)
(0.770241 2.48869e-07 0)
(0.770241 4.34429e-07 0)
(0.770241 7.41824e-07 0)
(0.770241 1.24316e-06 0)
(0.770241 2.04909e-06 0)
(0.770241 3.32571e-06 0)
(0.770241 5.31539e-06 0)
(0.770241 8.35846e-06 0)
(0.770241 1.29075e-05 0)
(0.770242 1.95168e-05 0)
(0.770243 2.87789e-05 0)
(0.770246 4.11973e-05 0)
(0.770254 5.70585e-05 0)
(0.770267 7.61538e-05 0)
(0.770211 9.40498e-05 0)
(0.769914 8.66092e-05 0)
(0.770411 2.45344e-05 0)
(0.776065 1.41632e-05 0)
(0.756897 0.00021461 0)
(0.779423 2.06371e-05 0)
(0.347714 -0.075253 0)
(0.99611 -0.0904869 0)
(0.885266 -0.0954938 0)
(0.800425 -0.0861503 0)
(0.77541 -0.0703608 0)
(0.766936 -0.0538296 0)
(0.760158 -0.0396183 0)
(0.755035 -0.02843 0)
(0.751773 -0.0200021 0)
(0.749782 -0.0138378 0)
(0.748532 -0.00942874 0)
(0.747725 -0.00633823 0)
(0.747199 -0.0042095 0)
(0.746854 -0.00276541 0)
(0.746629 -0.00179886 0)
(0.746483 -0.00115964 0)
(0.746388 -0.000741409 0)
(0.746327 -0.000470426 0)
(0.746288 -0.000296395 0)
(0.746263 -0.000185528 0)
(0.746248 -0.000115421 0)
(0.746238 -7.13896e-05 0)
(0.746232 -4.39081e-05 0)
(0.746228 -2.68528e-05 0)
(0.746226 -1.63247e-05 0)
(0.746225 -9.85965e-06 0)
(0.746224 -5.9082e-06 0)
(0.746223 -3.50387e-06 0)
(0.746223 -2.04722e-06 0)
(0.746223 -1.16871e-06 0)
(0.746223 -6.41382e-07 0)
(0.746223 -3.26546e-07 0)
(0.746223 -1.39815e-07 0)
(0.746223 -3.005e-08 0)
(0.746222 3.36055e-08 0)
(0.746222 6.97355e-08 0)
(0.746222 8.95149e-08 0)
(0.746222 9.96285e-08 0)
(0.746222 1.04065e-07 0)
(0.746222 1.05221e-07 0)
(0.746222 1.04523e-07 0)
(0.746222 1.02816e-07 0)
(0.746222 1.00605e-07 0)
(0.746222 9.81879e-08 0)
(0.746222 9.57368e-08 0)
(0.746222 9.33511e-08 0)
(0.746222 9.10802e-08 0)
(0.746222 8.89483e-08 0)
(0.746222 8.69578e-08 0)
(0.746222 8.51025e-08 0)
(0.746222 8.3365e-08 0)
(0.746222 8.17257e-08 0)
(0.746222 8.01576e-08 0)
(0.746222 7.86344e-08 0)
(0.746222 7.71241e-08 0)
(0.746222 7.55968e-08 0)
(0.746222 7.40168e-08 0)
(0.746222 7.23516e-08 0)
(0.746222 7.05638e-08 0)
(0.746222 6.86196e-08 0)
(0.746222 6.64809e-08 0)
(0.746222 6.41144e-08 0)
(0.746222 6.14835e-08 0)
(0.746222 5.85588e-08 0)
(0.746222 5.53097e-08 0)
(0.746222 5.17162e-08 0)
(0.746222 4.77627e-08 0)
(0.746222 4.34521e-08 0)
(0.746222 3.88036e-08 0)
(0.746222 3.38742e-08 0)
(0.746222 2.87686e-08 0)
(0.746222 2.36799e-08 0)
(0.746222 1.8933e-08 0)
(0.746222 1.50807e-08 0)
(0.746222 1.30379e-08 0)
(0.746223 1.43273e-08 0)
(0.746223 2.14652e-08 0)
(0.746223 3.85995e-08 0)
(0.746223 7.25167e-08 0)
(0.746223 1.34291e-07 0)
(0.746223 2.41816e-07 0)
(0.746223 4.23758e-07 0)
(0.746223 7.25501e-07 0)
(0.746223 1.21788e-06 0)
(0.746223 2.00951e-06 0)
(0.746224 3.26317e-06 0)
(0.746224 5.21575e-06 0)
(0.746225 8.19832e-06 0)
(0.746226 1.26475e-05 0)
(0.746228 1.90897e-05 0)
(0.746232 2.80722e-05 0)
(0.746238 4.0027e-05 0)
(0.746251 5.50987e-05 0)