/*--------------------------------*- C++ -*----------------------------------*\
| =========                 |                                                 |
| \\      /  F ield         | foam-extend: Open Source CFD                    |
|  \\    /   O peration     | Version:     5.0                                |
|   \\  /    A nd           | Web:         http://www.foam-extend.org         |
|    \\/     M anipulation  |                                                 |
\*---------------------------------------------------------------------------*/
FoamFile
{
    version     2.0;
    format      ascii;
    class       volVectorField;
    location    "0.5";
    object      J;
}
// * * * * * * * * * * * * * * * * * * * * * * * * * * * * * * * * * * * * * //

dimensions      [0 -2 0 0 0 1 0];

internalField   nonuniform List<vector> 
4000
(
(0 0 8.7178)
(0 0 10.6747)
(-0 0 8.73794)
(0 0 9.75242)
(-0 0 9.12966)
(0 0 9.52895)
(-0 0 9.27921)
(0 0 9.4382)
(-0 0 9.33727)
(0 0 9.40136)
(-0 0 9.36061)
(0 0 9.3865)
(-0 0 9.37004)
(0 0 9.3805)
(-0 0 9.37385)
(0 0 9.37808)
(-0 0 9.37539)
(0 0 9.3771)
(-0 0 9.37601)
(0 0 9.37671)
(-0 0 9.37627)
(0 0 9.37655)
(-0 0 9.37637)
(0 0 9.37648)
(-0 0 9.37641)
(0 0 9.37645)
(-0 0 9.37643)
(0 0 9.37644)
(-0 0 9.37643)
(0 0 9.37644)
(-0 0 9.37644)
(0 0 9.37644)
(-0 0 9.37644)
(0 0 9.37644)
(-0 0 9.37644)
(0 0 9.37644)
(-0 0 9.37644)
(0 0 9.37644)
(-0 0 9.37644)
(0 0 9.37644)
(-0 0 9.37644)
(0 0 9.37644)
(-0 0 9.37644)
(0 0 9.37644)
(-0 0 9.37644)
(0 0 9.37644)
(-0 0 9.37644)
(0 0 9.37644)
(-0 0 9.37644)
(0 0 9.37644)
(-0 0 9.37644)
(0 0 9.37644)
(-0 0 9.37644)
(0 0 9.37644)
(-0 0 9.37644)
(0 0 9.37644)
(-0 0 9.37644)
(0 0 9.37644)
(-0 0 9.37644)
(0 0 9.37644)
(-0 0 9.37644)
(0 0 9.37644)
(-0 0 9.37644)
(0 0 9.37644)
(-0 0 9.37644)
(0 0 9.37644)
(-0 0 9.37644)
(0 0 9.37644)
(0 0 9.37644)
(-0 0 9.37644)
(-0 0 9.37644)
(0 0 9.37644)
(-0 0 9.37644)
(0 0 9.37644)
(0 0 9.37644)
(-0 0 9.37644)
(0 0 9.37644)
(0 0 9.37644)
(0 0 9.37644)
(0 0 9.37644)
(-0 0 9.37644)
(-0 0 9.37644)
(-0 0 9.37644)
(0 0 9.37644)
(0 0 9.37644)
(0 0 9.37644)
(-0 0 9.37644)
(-0 0 9.37644)
(-0 0 9.37644)
(-0 0 9.37644)
(-0 0 9.37644)
(-0 0 9.37644)
(-0 0 9.37644)
(-0 0 9.37644)
(-0 0 9.37644)
(-0 0 9.37644)
(-0 0 9.37644)
(-0 0 9.37644)
(-0 0 9.37644)
(0 0 9.37644)
(0 0 14.8137)
(0 0 18.4909)
(-0 0 15.4474)
(0 0 17.1348)
(-0 0 16.0902)
(0 0 16.7595)
(-0 0 16.3409)
(0 0 16.6075)
(-0 0 16.4383)
(0 0 16.5457)
(-0 0 16.4774)
(0 0 16.5208)
(-0 0 16.4932)
(0 0 16.5108)
(-0 0 16.4996)
(0 0 16.5067)
(-0 0 16.5022)
(0 0 16.5051)
(-0 0 16.5032)
(0 0 16.5044)
(-0 0 16.5037)
(0 0 16.5041)
(-0 0 16.5038)
(0 0 16.504)
(-0 0 16.5039)
(0 0 16.504)
(-0 0 16.5039)
(0 0 16.504)
(-0 0 16.5039)
(0 0 16.504)
(-0 0 16.504)
(0 0 16.504)
(-0 0 16.504)
(0 0 16.504)
(-0 0 16.504)
(0 0 16.504)
(-0 0 16.504)
(0 0 16.504)
(-0 0 16.504)
(0 0 16.504)
(-0 0 16.504)
(0 0 16.504)
(-0 0 16.504)
(0 0 16.504)
(-0 0 16.504)
(0 0 16.504)
(-0 0 16.504)
(0 0 16.504)
(-0 0 16.504)
(0 0 16.504)
(-0 0 16.504)
(0 0 16.504)
(-0 0 16.504)
(0 0 16.504)
(-0 0 16.504)
(0 0 16.504)
(-0 0 16.504)
(0 0 16.504)
(-0 0 16.504)
(0 0 16.504)
(-0 0 16.504)
(0 0 16.504)
(-0 0 16.504)
(0 0 16.504)
(0 0 16.504)
(0 0 16.504)
(-0 0 16.504)
(0 0 16.504)
(0 0 16.504)
(0 0 16.504)
(0 0 16.504)
(0 0 16.504)
(-0 0 16.504)
(0 0 16.504)
(0 0 16.504)
(0 0 16.504)
(0 0 16.504)
(0 0 16.504)
(0 0 16.504)
(0 0 16.504)
(0 0 16.504)
(0 0 16.504)
(0 0 16.504)
(0 0 16.504)
(0 0 16.504)
(0 0 16.504)
(0 0 16.504)
(0 0 16.504)
(0 0 16.504)
(0 0 16.504)
(0 0 16.504)
(0 0 16.504)
(0 0 16.504)
(0 0 16.504)
(0 0 16.504)
(0 0 16.504)
(0 0 16.504)
(0 0 16.504)
(0 0 16.504)
(0 0 16.504)
(0 0 16.9935)
(0 0 21.4093)
(0 0 18.0497)
(0 0 19.9547)
(-0 0 18.7677)
(0 0 19.5277)
(-0 0 19.052)
(0 0 19.355)
(-0 0 19.1627)
(0 0 19.2848)
(-0 0 19.2072)
(0 0 19.2565)
(-0 0 19.2251)
(0 0 19.2451)
(-0 0 19.2324)
(0 0 19.2405)
(-0 0 19.2353)
(0 0 19.2386)
(-0 0 19.2365)
(0 0 19.2379)
(-0 0 19.237)
(0 0 19.2375)
(-0 0 19.2372)
(0 0 19.2374)
(-0 0 19.2373)
(0 0 19.2374)
(-0 0 19.2373)
(0 0 19.2374)
(-0 0 19.2373)
(0 0 19.2373)
(-0 0 19.2373)
(0 0 19.2373)
(-0 0 19.2373)
(0 0 19.2373)
(-0 0 19.2373)
(0 0 19.2373)
(-0 0 19.2373)
(0 0 19.2373)
(-0 0 19.2373)
(0 0 19.2373)
(-0 0 19.2373)
(0 0 19.2373)
(-0 0 19.2373)
(0 0 19.2373)
(-0 0 19.2373)
(0 0 19.2373)
(-0 0 19.2373)
(0 0 19.2373)
(-0 0 19.2373)
(0 0 19.2373)
(-0 0 19.2373)
(0 0 19.2373)
(-0 0 19.2373)
(0 0 19.2373)
(-0 0 19.2373)
(0 0 19.2373)
(-0 0 19.2373)
(0 0 19.2373)
(-0 0 19.2373)
(0 0 19.2373)
(-0 0 19.2373)
(0 0 19.2373)
(-0 0 19.2373)
(0 0 19.2373)
(0 0 19.2373)
(0 0 19.2373)
(-0 0 19.2373)
(0 0 19.2373)
(0 0 19.2373)
(0 0 19.2373)
(0 0 19.2373)
(-0 0 19.2373)
(-0 0 19.2373)
(0 0 19.2373)
(0 0 19.2373)
(0 0 19.2373)
(0 0 19.2373)
(0 0 19.2373)
(0 0 19.2373)
(0 0 19.2373)
(0 0 19.2373)
(0 0 19.2373)
(0 0 19.2373)
(0 0 19.2373)
(0 0 19.2373)
(0 0 19.2373)
(0 0 19.2373)
(0 0 19.2373)
(0 0 19.2373)
(0 0 19.2373)
(0 0 19.2373)
(0 0 19.2373)
(0 0 19.2373)
(0 0 19.2373)
(0 0 19.2373)
(0 0 19.2373)
(0 0 19.2373)
(0 0 19.2373)
(0 0 19.2373)
(0 0 19.2373)
(0 0 17.721)
(0 0 22.4479)
(0 0 19.0611)
(0 0 21.0333)
(-0 0 19.7974)
(0 0 20.5881)
(-0 0 20.0925)
(0 0 20.4082)
(-0 0 20.2078)
(0 0 20.3351)
(-0 0 20.2541)
(0 0 20.3056)
(-0 0 20.2729)
(0 0 20.2937)
(-0 0 20.2804)
(0 0 20.2888)
(-0 0 20.2835)
(0 0 20.2869)
(-0 0 20.2847)
(0 0 20.2861)
(-0 0 20.2852)
(0 0 20.2858)
(-0 0 20.2854)
(0 0 20.2857)
(-0 0 20.2855)
(0 0 20.2856)
(-0 0 20.2856)
(0 0 20.2856)
(-0 0 20.2856)
(0 0 20.2856)
(-0 0 20.2856)
(0 0 20.2856)
(-0 0 20.2856)
(0 0 20.2856)
(-0 0 20.2856)
(0 0 20.2856)
(-0 0 20.2856)
(0 0 20.2856)
(-0 0 20.2856)
(0 0 20.2856)
(-0 0 20.2856)
(0 0 20.2856)
(-0 0 20.2856)
(0 0 20.2856)
(-0 0 20.2856)
(0 0 20.2856)
(-0 0 20.2856)
(0 0 20.2856)
(-0 0 20.2856)
(0 0 20.2856)
(-0 0 20.2856)
(0 0 20.2856)
(-0 0 20.2856)
(0 0 20.2856)
(-0 0 20.2856)
(0 0 20.2856)
(-0 0 20.2856)
(0 0 20.2856)
(-0 0 20.2856)
(0 0 20.2856)
(-0 0 20.2856)
(0 0 20.2856)
(-0 0 20.2856)
(0 0 20.2856)
(0 0 20.2856)
(0 0 20.2856)
(-0 0 20.2856)
(0 0 20.2856)
(0 0 20.2856)
(0 0 20.2856)
(0 0 20.2856)
(-0 0 20.2856)
(-0 0 20.2856)
(0 0 20.2856)
(0 0 20.2856)
(0 0 20.2856)
(0 0 20.2856)
(0 0 20.2856)
(0 0 20.2856)
(0 0 20.2856)
(0 0 20.2856)
(0 0 20.2856)
(0 0 20.2856)
(0 0 20.2856)
(0 0 20.2856)
(0 0 20.2856)
(0 0 20.2856)
(0 0 20.2856)
(0 0 20.2856)
(0 0 20.2856)
(0 0 20.2856)
(0 0 20.2856)
(0 0 20.2856)
(0 0 20.2856)
(0 0 20.2856)
(0 0 20.2856)
(0 0 20.2856)
(0 0 20.2856)
(0 0 20.2856)
(0 0 20.2856)
(0 0 17.9418)
(0 0 22.8016)
(0 0 19.458)
(0 0 21.4466)
(-0 0 20.1939)
(0 0 20.9945)
(-0 0 20.4918)
(0 0 20.8119)
(-0 0 20.6087)
(0 0 20.7378)
(-0 0 20.6557)
(0 0 20.7079)
(-0 0 20.6747)
(0 0 20.6958)
(-0 0 20.6824)
(0 0 20.6909)
(-0 0 20.6855)
(0 0 20.6889)
(-0 0 20.6867)
(0 0 20.6881)
(-0 0 20.6872)
(0 0 20.6878)
(-0 0 20.6874)
(0 0 20.6877)
(-0 0 20.6875)
(0 0 20.6876)
(-0 0 20.6876)
(0 0 20.6876)
(-0 0 20.6876)
(0 0 20.6876)
(-0 0 20.6876)
(0 0 20.6876)
(-0 0 20.6876)
(0 0 20.6876)
(-0 0 20.6876)
(0 0 20.6876)
(-0 0 20.6876)
(0 0 20.6876)
(-0 0 20.6876)
(0 0 20.6876)
(-0 0 20.6876)
(0 0 20.6876)
(-0 0 20.6876)
(0 0 20.6876)
(-0 0 20.6876)
(0 0 20.6876)
(-0 0 20.6876)
(0 0 20.6876)
(-0 0 20.6876)
(0 0 20.6876)
(-0 0 20.6876)
(0 0 20.6876)
(-0 0 20.6876)
(0 0 20.6876)
(-0 0 20.6876)
(0 0 20.6876)
(-0 0 20.6876)
(0 0 20.6876)
(-0 0 20.6876)
(0 0 20.6876)
(-0 0 20.6876)
(0 0 20.6876)
(-0 0 20.6876)
(0 0 20.6876)
(0 0 20.6876)
(0 0 20.6876)
(-0 0 20.6876)
(0 0 20.6876)
(0 0 20.6876)
(0 0 20.6876)
(0 0 20.6876)
(-0 0 20.6876)
(-0 0 20.6876)
(0 0 20.6876)
(0 0 20.6876)
(0 0 20.6876)
(0 0 20.6876)
(0 0 20.6876)
(0 0 20.6876)
(0 0 20.6876)
(0 0 20.6876)
(0 0 20.6876)
(0 0 20.6876)
(0 0 20.6876)
(0 0 20.6876)
(0 0 20.6876)
(0 0 20.6876)
(0 0 20.6876)
(0 0 20.6876)
(0 0 20.6876)
(0 0 20.6876)
(0 0 20.6876)
(0 0 20.6876)
(0 0 20.6876)
(0 0 20.6876)
(0 0 20.6876)
(0 0 20.6876)
(0 0 20.6876)
(0 0 20.6876)
(0 0 20.6876)
(0 0 17.9778)
(0 0 22.8954)
(0 0 19.6163)
(0 0 21.6057)
(-0 0 20.347)
(0 0 21.1505)
(-0 0 20.6448)
(0 0 20.9668)
(-0 0 20.7624)
(0 0 20.8922)
(-0 0 20.8097)
(0 0 20.8621)
(-0 0 20.8288)
(0 0 20.85)
(-0 0 20.8365)
(0 0 20.8451)
(-0 0 20.8396)
(0 0 20.8431)
(-0 0 20.8409)
(0 0 20.8423)
(-0 0 20.8414)
(0 0 20.842)
(-0 0 20.8416)
(0 0 20.8418)
(-0 0 20.8417)
(0 0 20.8418)
(-0 0 20.8417)
(0 0 20.8418)
(-0 0 20.8417)
(0 0 20.8418)
(-0 0 20.8417)
(0 0 20.8417)
(-0 0 20.8417)
(0 0 20.8417)
(-0 0 20.8417)
(0 0 20.8417)
(-0 0 20.8417)
(0 0 20.8417)
(-0 0 20.8417)
(0 0 20.8417)
(-0 0 20.8417)
(0 0 20.8417)
(-0 0 20.8417)
(0 0 20.8417)
(-0 0 20.8417)
(0 0 20.8417)
(-0 0 20.8417)
(0 0 20.8417)
(-0 0 20.8417)
(0 0 20.8417)
(-0 0 20.8417)
(0 0 20.8417)
(-0 0 20.8417)
(0 0 20.8417)
(-0 0 20.8417)
(0 0 20.8417)
(-0 0 20.8417)
(0 0 20.8417)
(-0 0 20.8417)
(0 0 20.8417)
(-0 0 20.8417)
(0 0 20.8417)
(-0 0 20.8417)
(0 0 20.8417)
(0 0 20.8417)
(0 0 20.8417)
(-0 0 20.8417)
(0 0 20.8417)
(0 0 20.8417)
(0 0 20.8417)
(-0 0 20.8417)
(-0 0 20.8417)
(-0 0 20.8417)
(0 0 20.8417)
(0 0 20.8417)
(0 0 20.8417)
(0 0 20.8417)
(0 0 20.8417)
(0 0 20.8417)
(0 0 20.8417)
(0 0 20.8417)
(0 0 20.8417)
(0 0 20.8417)
(0 0 20.8417)
(0 0 20.8417)
(0 0 20.8417)
(0 0 20.8417)
(0 0 20.8417)
(0 0 20.8417)
(0 0 20.8417)
(0 0 20.8417)
(0 0 20.8417)
(0 0 20.8417)
(0 0 20.8417)
(0 0 20.8417)
(0 0 20.8417)
(0 0 20.8417)
(0 0 20.8417)
(0 0 20.8417)
(0 0 20.8417)
(0 0 17.953)
(0 0 22.8979)
(0 0 19.6819)
(0 0 21.6675)
(-0 0 20.4067)
(0 0 21.2105)
(-0 0 20.7035)
(0 0 21.0262)
(-0 0 20.8213)
(0 0 20.9515)
(-0 0 20.8687)
(0 0 20.9213)
(-0 0 20.8879)
(0 0 20.9091)
(-0 0 20.8956)
(0 0 20.9042)
(-0 0 20.8987)
(0 0 20.9022)
(-0 0 20.9)
(0 0 20.9014)
(-0 0 20.9005)
(0 0 20.9011)
(-0 0 20.9007)
(0 0 20.901)
(-0 0 20.9008)
(0 0 20.9009)
(-0 0 20.9008)
(0 0 20.9009)
(-0 0 20.9009)
(0 0 20.9009)
(-0 0 20.9009)
(0 0 20.9009)
(-0 0 20.9009)
(0 0 20.9009)
(-0 0 20.9009)
(0 0 20.9009)
(-0 0 20.9009)
(0 0 20.9009)
(-0 0 20.9009)
(0 0 20.9009)
(-0 0 20.9009)
(0 0 20.9009)
(-0 0 20.9009)
(0 0 20.9009)
(-0 0 20.9009)
(0 0 20.9009)
(-0 0 20.9009)
(0 0 20.9009)
(-0 0 20.9009)
(0 0 20.9009)
(-0 0 20.9009)
(0 0 20.9009)
(-0 0 20.9009)
(0 0 20.9009)
(-0 0 20.9009)
(0 0 20.9009)
(-0 0 20.9009)
(0 0 20.9009)
(-0 0 20.9009)
(0 0 20.9009)
(-0 0 20.9009)
(0 0 20.9009)
(-0 0 20.9009)
(0 0 20.9009)
(0 0 20.9009)
(0 0 20.9009)
(-0 0 20.9009)
(-0 0 20.9009)
(0 0 20.9009)
(-0 0 20.9009)
(0 0 20.9009)
(-0 0 20.9009)
(-0 0 20.9009)
(0 0 20.9009)
(0 0 20.9009)
(0 0 20.9009)
(0 0 20.9009)
(0 0 20.9009)
(0 0 20.9009)
(0 0 20.9009)
(0 0 20.9009)
(0 0 20.9009)
(0 0 20.9009)
(0 0 20.9009)
(0 0 20.9009)
(0 0 20.9009)
(0 0 20.9009)
(0 0 20.9009)
(0 0 20.9009)
(0 0 20.9009)
(0 0 20.9009)
(0 0 20.9009)
(0 0 20.9009)
(0 0 20.9009)
(0 0 20.9009)
(0 0 20.9009)
(0 0 20.9009)
(0 0 20.9009)
(0 0 20.9009)
(0 0 20.9009)
(0 0 17.9094)
(0 0 22.8684)
(0 0 19.7109)
(0 0 21.692)
(-0 0 20.4305)
(0 0 21.2338)
(-0 0 20.7259)
(0 0 21.0491)
(-0 0 20.8438)
(0 0 20.9743)
(-0 0 20.8913)
(0 0 20.944)
(-0 0 20.9105)
(0 0 20.9318)
(-0 0 20.9183)
(0 0 20.9269)
(-0 0 20.9214)
(0 0 20.9249)
(-0 0 20.9227)
(0 0 20.9241)
(-0 0 20.9232)
(0 0 20.9238)
(-0 0 20.9234)
(0 0 20.9236)
(-0 0 20.9235)
(0 0 20.9236)
(-0 0 20.9235)
(0 0 20.9236)
(-0 0 20.9235)
(0 0 20.9235)
(-0 0 20.9235)
(0 0 20.9235)
(-0 0 20.9235)
(0 0 20.9235)
(-0 0 20.9235)
(0 0 20.9235)
(-0 0 20.9235)
(0 0 20.9235)
(-0 0 20.9235)
(0 0 20.9235)
(-0 0 20.9235)
(0 0 20.9235)
(-0 0 20.9235)
(0 0 20.9235)
(-0 0 20.9235)
(0 0 20.9235)
(-0 0 20.9235)
(0 0 20.9235)
(-0 0 20.9235)
(0 0 20.9235)
(-0 0 20.9235)
(0 0 20.9235)
(-0 0 20.9235)
(0 0 20.9235)
(-0 0 20.9235)
(0 0 20.9235)
(-0 0 20.9235)
(0 0 20.9235)
(-0 0 20.9235)
(0 0 20.9235)
(-0 0 20.9235)
(0 0 20.9235)
(-0 0 20.9235)
(0 0 20.9235)
(0 0 20.9235)
(0 0 20.9235)
(-0 0 20.9235)
(-0 0 20.9235)
(0 0 20.9235)
(-0 0 20.9235)
(0 0 20.9235)
(0 0 20.9235)
(-0 0 20.9235)
(0 0 20.9235)
(0 0 20.9235)
(0 0 20.9235)
(0 0 20.9235)
(0 0 20.9235)
(0 0 20.9235)
(0 0 20.9235)
(0 0 20.9235)
(0 0 20.9235)
(0 0 20.9235)
(0 0 20.9235)
(0 0 20.9235)
(0 0 20.9235)
(0 0 20.9235)
(0 0 20.9235)
(0 0 20.9235)
(0 0 20.9235)
(0 0 20.9235)
(0 0 20.9235)
(0 0 20.9235)
(0 0 20.9235)
(0 0 20.9235)
(0 0 20.9235)
(0 0 20.9235)
(0 0 20.9235)
(0 0 20.9235)
(0 0 20.9235)
(0 0 17.8633)
(0 0 22.8306)
(0 0 19.7251)
(0 0 21.7021)
(-0 0 20.4405)
(0 0 21.243)
(-0 0 20.7344)
(0 0 21.058)
(-0 0 20.8524)
(0 0 20.983)
(-0 0 20.9)
(0 0 20.9528)
(-0 0 20.9192)
(0 0 20.9405)
(-0 0 20.927)
(0 0 20.9356)
(-0 0 20.9301)
(0 0 20.9336)
(-0 0 20.9314)
(0 0 20.9328)
(-0 0 20.9319)
(0 0 20.9325)
(-0 0 20.9321)
(0 0 20.9323)
(-0 0 20.9322)
(0 0 20.9323)
(-0 0 20.9322)
(0 0 20.9322)
(-0 0 20.9322)
(0 0 20.9322)
(-0 0 20.9322)
(0 0 20.9322)
(-0 0 20.9322)
(0 0 20.9322)
(-0 0 20.9322)
(0 0 20.9322)
(-0 0 20.9322)
(0 0 20.9322)
(-0 0 20.9322)
(0 0 20.9322)
(-0 0 20.9322)
(0 0 20.9322)
(-0 0 20.9322)
(0 0 20.9322)
(-0 0 20.9322)
(0 0 20.9322)
(-0 0 20.9322)
(0 0 20.9322)
(-0 0 20.9322)
(0 0 20.9322)
(-0 0 20.9322)
(0 0 20.9322)
(-0 0 20.9322)
(0 0 20.9322)
(-0 0 20.9322)
(0 0 20.9322)
(-0 0 20.9322)
(0 0 20.9322)
(-0 0 20.9322)
(0 0 20.9322)
(-0 0 20.9322)
(0 0 20.9322)
(-0 0 20.9322)
(0 0 20.9322)
(0 0 20.9322)
(0 0 20.9322)
(-0 0 20.9322)
(0 0 20.9322)
(-0 0 20.9322)
(-0 0 20.9322)
(0 0 20.9322)
(0 0 20.9322)
(-0 0 20.9322)
(0 0 20.9322)
(0 0 20.9322)
(0 0 20.9322)
(0 0 20.9322)
(0 0 20.9322)
(0 0 20.9322)
(0 0 20.9322)
(0 0 20.9322)
(0 0 20.9322)
(0 0 20.9322)
(0 0 20.9322)
(0 0 20.9322)
(0 0 20.9322)
(0 0 20.9322)
(0 0 20.9322)
(0 0 20.9322)
(0 0 20.9322)
(0 0 20.9322)
(0 0 20.9322)
(0 0 20.9322)
(0 0 20.9322)
(0 0 20.9322)
(0 0 20.9322)
(0 0 20.9322)
(0 0 20.9322)
(0 0 20.9322)
(0 0 20.9322)
(0 0 17.8195)
(0 0 22.7925)
(0 0 19.7331)
(0 0 21.7065)
(-0 0 20.4453)
(0 0 21.2468)
(-0 0 20.7376)
(0 0 21.0614)
(-0 0 20.8556)
(0 0 20.9864)
(-0 0 20.9032)
(0 0 20.9561)
(-0 0 20.9225)
(0 0 20.9439)
(-0 0 20.9303)
(0 0 20.9389)
(-0 0 20.9334)
(0 0 20.9369)
(-0 0 20.9347)
(0 0 20.9361)
(-0 0 20.9352)
(0 0 20.9358)
(-0 0 20.9354)
(0 0 20.9357)
(-0 0 20.9355)
(0 0 20.9356)
(-0 0 20.9355)
(0 0 20.9356)
(-0 0 20.9356)
(0 0 20.9356)
(-0 0 20.9356)
(0 0 20.9356)
(-0 0 20.9356)
(0 0 20.9356)
(-0 0 20.9356)
(0 0 20.9356)
(-0 0 20.9356)
(0 0 20.9356)
(-0 0 20.9356)
(0 0 20.9356)
(-0 0 20.9356)
(0 0 20.9356)
(-0 0 20.9356)
(0 0 20.9356)
(-0 0 20.9356)
(0 0 20.9356)
(-0 0 20.9356)
(0 0 20.9356)
(-0 0 20.9356)
(0 0 20.9356)
(-0 0 20.9356)
(0 0 20.9356)
(-0 0 20.9356)
(0 0 20.9356)
(-0 0 20.9356)
(0 0 20.9356)
(-0 0 20.9356)
(0 0 20.9356)
(-0 0 20.9356)
(0 0 20.9356)
(-0 0 20.9356)
(0 0 20.9356)
(-0 0 20.9356)
(0 0 20.9356)
(0 0 20.9356)
(-0 0 20.9356)
(-0 0 20.9356)
(0 0 20.9356)
(-0 0 20.9356)
(-0 0 20.9356)
(0 0 20.9356)
(0 0 20.9356)
(-0 0 20.9356)
(0 0 20.9356)
(0 0 20.9356)
(0 0 20.9356)
(0 0 20.9356)
(0 0 20.9356)
(0 0 20.9356)
(0 0 20.9356)
(0 0 20.9356)
(0 0 20.9356)
(0 0 20.9356)
(0 0 20.9356)
(0 0 20.9356)
(0 0 20.9356)
(0 0 20.9356)
(0 0 20.9356)
(0 0 20.9356)
(0 0 20.9356)
(0 0 20.9356)
(0 0 20.9356)
(0 0 20.9356)
(0 0 20.9356)
(0 0 20.9356)
(0 0 20.9356)
(0 0 20.9356)
(0 0 20.9356)
(0 0 20.9356)
(0 0 20.9356)
(0 0 17.7798)
(0 0 22.7572)
(0 0 19.7381)
(0 0 21.7088)
(-0 0 20.448)
(0 0 21.2485)
(-0 0 20.7388)
(0 0 21.0628)
(-0 0 20.8568)
(0 0 20.9878)
(-0 0 20.9045)
(0 0 20.9574)
(-0 0 20.9238)
(0 0 20.9452)
(-0 0 20.9316)
(0 0 20.9402)
(-0 0 20.9347)
(0 0 20.9382)
(-0 0 20.936)
(0 0 20.9374)
(-0 0 20.9365)
(0 0 20.9371)
(-0 0 20.9367)
(0 0 20.9369)
(-0 0 20.9368)
(0 0 20.9369)
(-0 0 20.9368)
(0 0 20.9369)
(-0 0 20.9368)
(0 0 20.9369)
(-0 0 20.9368)
(0 0 20.9369)
(-0 0 20.9368)
(0 0 20.9368)
(-0 0 20.9368)
(0 0 20.9368)
(-0 0 20.9368)
(0 0 20.9368)
(-0 0 20.9368)
(0 0 20.9368)
(-0 0 20.9368)
(0 0 20.9368)
(-0 0 20.9368)
(0 0 20.9368)
(-0 0 20.9368)
(0 0 20.9368)
(-0 0 20.9368)
(0 0 20.9368)
(-0 0 20.9368)
(0 0 20.9368)
(-0 0 20.9368)
(0 0 20.9368)
(-0 0 20.9368)
(0 0 20.9368)
(-0 0 20.9368)
(0 0 20.9368)
(-0 0 20.9368)
(0 0 20.9368)
(-0 0 20.9368)
(0 0 20.9368)
(-0 0 20.9368)
(0 0 20.9368)
(-0 0 20.9368)
(0 0 20.9368)
(0 0 20.9368)
(-0 0 20.9368)
(-0 0 20.9368)
(-0 0 20.9368)
(0 0 20.9368)
(0 0 20.9368)
(0 0 20.9368)
(0 0 20.9368)
(-0 0 20.9368)
(0 0 20.9368)
(0 0 20.9368)
(0 0 20.9368)
(0 0 20.9368)
(0 0 20.9368)
(0 0 20.9368)
(0 0 20.9368)
(0 0 20.9368)
(0 0 20.9368)
(0 0 20.9368)
(0 0 20.9368)
(0 0 20.9368)
(0 0 20.9368)
(0 0 20.9368)
(0 0 20.9368)
(0 0 20.9368)
(0 0 20.9368)
(0 0 20.9368)
(0 0 20.9368)
(0 0 20.9368)
(0 0 20.9368)
(0 0 20.9368)
(0 0 20.9368)
(0 0 20.9368)
(0 0 20.9368)
(0 0 20.9368)
(0 0 20.9368)
(0 0 17.7445)
(0 0 22.7255)
(0 0 19.7417)
(0 0 21.7101)
(-0 0 20.4499)
(0 0 21.2493)
(-0 0 20.7392)
(0 0 21.0634)
(-0 0 20.8572)
(0 0 20.9883)
(-0 0 20.9049)
(0 0 20.9579)
(-0 0 20.9242)
(0 0 20.9457)
(-0 0 20.932)
(0 0 20.9407)
(-0 0 20.9352)
(0 0 20.9387)
(-0 0 20.9365)
(0 0 20.9379)
(-0 0 20.937)
(0 0 20.9376)
(-0 0 20.9372)
(0 0 20.9374)
(-0 0 20.9373)
(0 0 20.9374)
(-0 0 20.9373)
(0 0 20.9374)
(-0 0 20.9373)
(0 0 20.9373)
(-0 0 20.9373)
(0 0 20.9373)
(-0 0 20.9373)
(0 0 20.9373)
(-0 0 20.9373)
(0 0 20.9373)
(-0 0 20.9373)
(0 0 20.9373)
(-0 0 20.9373)
(0 0 20.9373)
(-0 0 20.9373)
(0 0 20.9373)
(-0 0 20.9373)
(0 0 20.9373)
(-0 0 20.9373)
(0 0 20.9373)
(-0 0 20.9373)
(0 0 20.9373)
(-0 0 20.9373)
(0 0 20.9373)
(-0 0 20.9373)
(0 0 20.9373)
(-0 0 20.9373)
(0 0 20.9373)
(-0 0 20.9373)
(0 0 20.9373)
(-0 0 20.9373)
(0 0 20.9373)
(-0 0 20.9373)
(0 0 20.9373)
(-0 0 20.9373)
(0 0 20.9373)
(-0 0 20.9373)
(0 0 20.9373)
(0 0 20.9373)
(0 0 20.9373)
(-0 0 20.9373)
(-0 0 20.9373)
(0 0 20.9373)
(0 0 20.9373)
(0 0 20.9373)
(-0 0 20.9373)
(-0 0 20.9373)
(0 0 20.9373)
(0 0 20.9373)
(0 0 20.9373)
(0 0 20.9373)
(0 0 20.9373)
(0 0 20.9373)
(0 0 20.9373)
(0 0 20.9373)
(0 0 20.9373)
(0 0 20.9373)
(0 0 20.9373)
(0 0 20.9373)
(0 0 20.9373)
(0 0 20.9373)
(0 0 20.9373)
(0 0 20.9373)
(0 0 20.9373)
(0 0 20.9373)
(0 0 20.9373)
(0 0 20.9373)
(0 0 20.9373)
(0 0 20.9373)
(0 0 20.9373)
(0 0 20.9373)
(0 0 20.9373)
(0 0 20.9373)
(0 0 20.9373)
(0 0 17.7137)
(0 0 22.6976)
(0 0 19.7444)
(0 0 21.711)
(-0 0 20.4514)
(0 0 21.2498)
(-0 0 20.7393)
(0 0 21.0636)
(-0 0 20.8573)
(0 0 20.9885)
(-0 0 20.9051)
(0 0 20.9581)
(-0 0 20.9244)
(0 0 20.9459)
(-0 0 20.9322)
(0 0 20.9409)
(-0 0 20.9354)
(0 0 20.9389)
(-0 0 20.9367)
(0 0 20.9381)
(-0 0 20.9372)
(0 0 20.9377)
(-0 0 20.9374)
(0 0 20.9376)
(-0 0 20.9375)
(0 0 20.9376)
(-0 0 20.9375)
(0 0 20.9375)
(-0 0 20.9375)
(0 0 20.9375)
(-0 0 20.9375)
(0 0 20.9375)
(-0 0 20.9375)
(0 0 20.9375)
(-0 0 20.9375)
(0 0 20.9375)
(-0 0 20.9375)
(0 0 20.9375)
(-0 0 20.9375)
(0 0 20.9375)
(-0 0 20.9375)
(0 0 20.9375)
(-0 0 20.9375)
(0 0 20.9375)
(-0 0 20.9375)
(0 0 20.9375)
(-0 0 20.9375)
(0 0 20.9375)
(-0 0 20.9375)
(0 0 20.9375)
(-0 0 20.9375)
(0 0 20.9375)
(-0 0 20.9375)
(0 0 20.9375)
(-0 0 20.9375)
(0 0 20.9375)
(-0 0 20.9375)
(0 0 20.9375)
(-0 0 20.9375)
(0 0 20.9375)
(-0 0 20.9375)
(0 0 20.9375)
(-0 0 20.9375)
(0 0 20.9375)
(0 0 20.9375)
(-0 0 20.9375)
(-0 0 20.9375)
(-0 0 20.9375)
(0 0 20.9375)
(-0 0 20.9375)
(0 0 20.9375)
(0 0 20.9375)
(-0 0 20.9375)
(0 0 20.9375)
(0 0 20.9375)
(0 0 20.9375)
(0 0 20.9375)
(0 0 20.9375)
(0 0 20.9375)
(0 0 20.9375)
(0 0 20.9375)
(0 0 20.9375)
(0 0 20.9375)
(0 0 20.9375)
(0 0 20.9375)
(0 0 20.9375)
(0 0 20.9375)
(0 0 20.9375)
(0 0 20.9375)
(0 0 20.9375)
(0 0 20.9375)
(0 0 20.9375)
(0 0 20.9375)
(0 0 20.9375)
(0 0 20.9375)
(0 0 20.9375)
(0 0 20.9375)
(0 0 20.9375)
(0 0 20.9375)
(0 0 20.9375)
(0 0 17.6871)
(0 0 22.6735)
(0 0 19.7465)
(0 0 21.7116)
(-0 0 20.4526)
(0 0 21.2502)
(-0 0 20.7393)
(0 0 21.0637)
(-0 0 20.8573)
(0 0 20.9886)
(-0 0 20.9052)
(0 0 20.9582)
(-0 0 20.9245)
(0 0 20.9459)
(-0 0 20.9323)
(0 0 20.941)
(-0 0 20.9355)
(0 0 20.939)
(-0 0 20.9367)
(0 0 20.9381)
(-0 0 20.9372)
(0 0 20.9378)
(-0 0 20.9375)
(0 0 20.9377)
(-0 0 20.9375)
(0 0 20.9376)
(-0 0 20.9376)
(0 0 20.9376)
(-0 0 20.9376)
(0 0 20.9376)
(-0 0 20.9376)
(0 0 20.9376)
(-0 0 20.9376)
(0 0 20.9376)
(-0 0 20.9376)
(0 0 20.9376)
(-0 0 20.9376)
(0 0 20.9376)
(-0 0 20.9376)
(0 0 20.9376)
(-0 0 20.9376)
(0 0 20.9376)
(-0 0 20.9376)
(0 0 20.9376)
(-0 0 20.9376)
(0 0 20.9376)
(-0 0 20.9376)
(0 0 20.9376)
(-0 0 20.9376)
(0 0 20.9376)
(-0 0 20.9376)
(0 0 20.9376)
(-0 0 20.9376)
(0 0 20.9376)
(-0 0 20.9376)
(0 0 20.9376)
(-0 0 20.9376)
(0 0 20.9376)
(-0 0 20.9376)
(0 0 20.9376)
(-0 0 20.9376)
(0 0 20.9376)
(-0 0 20.9376)
(0 0 20.9376)
(0 0 20.9376)
(0 0 20.9376)
(-0 0 20.9376)
(-0 0 20.9376)
(0 0 20.9376)
(-0 0 20.9376)
(0 0 20.9376)
(0 0 20.9376)
(-0 0 20.9376)
(0 0 20.9376)
(0 0 20.9376)
(0 0 20.9376)
(0 0 20.9376)
(0 0 20.9376)
(0 0 20.9376)
(0 0 20.9376)
(0 0 20.9376)
(0 0 20.9376)
(0 0 20.9376)
(0 0 20.9376)
(0 0 20.9376)
(0 0 20.9376)
(0 0 20.9376)
(0 0 20.9376)
(0 0 20.9376)
(0 0 20.9376)
(0 0 20.9376)
(0 0 20.9376)
(0 0 20.9376)
(0 0 20.9376)
(0 0 20.9376)
(0 0 20.9376)
(0 0 20.9376)
(0 0 20.9376)
(0 0 20.9376)
(0 0 20.9376)
(0 0 17.6646)
(0 0 22.653)
(0 0 19.7481)
(0 0 21.7121)
(-0 0 20.4537)
(0 0 21.2505)
(-0 0 20.7393)
(0 0 21.0638)
(-0 0 20.8573)
(0 0 20.9887)
(-0 0 20.9052)
(0 0 20.9583)
(-0 0 20.9245)
(0 0 20.946)
(-0 0 20.9323)
(0 0 20.941)
(-0 0 20.9355)
(0 0 20.939)
(-0 0 20.9368)
(0 0 20.9382)
(-0 0 20.9373)
(0 0 20.9378)
(-0 0 20.9375)
(0 0 20.9377)
(-0 0 20.9376)
(0 0 20.9377)
(-0 0 20.9376)
(0 0 20.9376)
(-0 0 20.9376)
(0 0 20.9376)
(-0 0 20.9376)
(0 0 20.9376)
(-0 0 20.9376)
(0 0 20.9376)
(-0 0 20.9376)
(0 0 20.9376)
(-0 0 20.9376)
(0 0 20.9376)
(-0 0 20.9376)
(0 0 20.9376)
(-0 0 20.9376)
(0 0 20.9376)
(-0 0 20.9376)
(0 0 20.9376)
(-0 0 20.9376)
(0 0 20.9376)
(-0 0 20.9376)
(0 0 20.9376)
(-0 0 20.9376)
(0 0 20.9376)
(-0 0 20.9376)
(0 0 20.9376)
(-0 0 20.9376)
(0 0 20.9376)
(-0 0 20.9376)
(0 0 20.9376)
(-0 0 20.9376)
(0 0 20.9376)
(-0 0 20.9376)
(0 0 20.9376)
(-0 0 20.9376)
(0 0 20.9376)
(-0 0 20.9376)
(0 0 20.9376)
(-0 0 20.9376)
(0 0 20.9376)
(-0 0 20.9376)
(-0 0 20.9376)
(0 0 20.9376)
(-0 0 20.9376)
(0 0 20.9376)
(0 0 20.9376)
(0 0 20.9376)
(0 0 20.9376)
(0 0 20.9376)
(0 0 20.9376)
(0 0 20.9376)
(0 0 20.9376)
(0 0 20.9376)
(0 0 20.9376)
(0 0 20.9376)
(0 0 20.9376)
(0 0 20.9376)
(0 0 20.9376)
(0 0 20.9376)
(0 0 20.9376)
(0 0 20.9376)
(0 0 20.9376)
(0 0 20.9376)
(0 0 20.9376)
(0 0 20.9376)
(0 0 20.9376)
(0 0 20.9376)
(0 0 20.9376)
(0 0 20.9376)
(0 0 20.9376)
(0 0 20.9376)
(0 0 20.9376)
(0 0 20.9376)
(0 0 20.9376)
(0 0 17.6462)
(0 0 22.636)
(0 0 19.7494)
(0 0 21.7125)
(-0 0 20.4546)
(0 0 21.2507)
(-0 0 20.7393)
(0 0 21.0639)
(-0 0 20.8573)
(0 0 20.9887)
(-0 0 20.9052)
(0 0 20.9583)
(-0 0 20.9245)
(0 0 20.946)
(-0 0 20.9323)
(0 0 20.941)
(-0 0 20.9355)
(0 0 20.939)
(-0 0 20.9368)
(0 0 20.9382)
(-0 0 20.9373)
(0 0 20.9379)
(-0 0 20.9375)
(0 0 20.9377)
(-0 0 20.9376)
(0 0 20.9377)
(-0 0 20.9376)
(0 0 20.9377)
(-0 0 20.9376)
(0 0 20.9376)
(-0 0 20.9376)
(0 0 20.9376)
(-0 0 20.9376)
(0 0 20.9376)
(-0 0 20.9376)
(0 0 20.9376)
(-0 0 20.9376)
(0 0 20.9376)
(-0 0 20.9376)
(0 0 20.9376)
(-0 0 20.9376)
(0 0 20.9376)
(-0 0 20.9376)
(0 0 20.9376)
(-0 0 20.9376)
(0 0 20.9376)
(-0 0 20.9376)
(0 0 20.9376)
(-0 0 20.9376)
(0 0 20.9376)
(-0 0 20.9376)
(0 0 20.9376)
(-0 0 20.9376)
(0 0 20.9376)
(-0 0 20.9376)
(0 0 20.9376)
(-0 0 20.9376)
(0 0 20.9376)
(0 0 20.9376)
(0 0 20.9376)
(-0 0 20.9376)
(0 0 20.9376)
(-0 0 20.9376)
(0 0 20.9376)
(0 0 20.9376)
(0 0 20.9376)
(-0 0 20.9376)
(-0 0 20.9376)
(0 0 20.9376)
(-0 0 20.9376)
(0 0 20.9376)
(0 0 20.9376)
(0 0 20.9376)
(0 0 20.9376)
(0 0 20.9376)
(0 0 20.9376)
(0 0 20.9376)
(0 0 20.9376)
(0 0 20.9376)
(0 0 20.9376)
(0 0 20.9376)
(0 0 20.9376)
(0 0 20.9376)
(0 0 20.9376)
(0 0 20.9376)
(0 0 20.9376)
(0 0 20.9376)
(0 0 20.9376)
(0 0 20.9376)
(0 0 20.9376)
(0 0 20.9376)
(0 0 20.9376)
(0 0 20.9376)
(0 0 20.9376)
(0 0 20.9376)
(0 0 20.9376)
(0 0 20.9376)
(0 0 20.9376)
(0 0 20.9376)
(0 0 20.9376)
(0 0 17.6316)
(0 0 22.6225)
(0 0 19.7504)
(0 0 21.7128)
(-0 0 20.4553)
(0 0 21.2509)
(-0 0 20.7392)
(0 0 21.0639)
(-0 0 20.8572)
(0 0 20.9887)
(-0 0 20.9051)
(0 0 20.9583)
(-0 0 20.9245)
(0 0 20.946)
(-0 0 20.9323)
(0 0 20.941)
(-0 0 20.9355)
(0 0 20.939)
(-0 0 20.9368)
(0 0 20.9382)
(-0 0 20.9373)
(0 0 20.9379)
(-0 0 20.9375)
(0 0 20.9377)
(-0 0 20.9376)
(0 0 20.9377)
(-0 0 20.9376)
(0 0 20.9377)
(-0 0 20.9376)
(0 0 20.9376)
(-0 0 20.9376)
(0 0 20.9376)
(-0 0 20.9376)
(0 0 20.9376)
(-0 0 20.9376)
(0 0 20.9376)
(-0 0 20.9376)
(0 0 20.9376)
(-0 0 20.9376)
(0 0 20.9376)
(-0 0 20.9376)
(0 0 20.9376)
(-0 0 20.9376)
(0 0 20.9376)
(-0 0 20.9376)
(0 0 20.9376)
(-0 0 20.9376)
(0 0 20.9376)
(-0 0 20.9376)
(0 0 20.9376)
(-0 0 20.9376)
(0 0 20.9376)
(-0 0 20.9376)
(0 0 20.9376)
(-0 0 20.9376)
(0 0 20.9376)
(-0 0 20.9376)
(0 0 20.9376)
(0 0 20.9376)
(0 0 20.9376)
(0 0 20.9376)
(0 0 20.9376)
(-0 0 20.9376)
(0 0 20.9376)
(0 0 20.9376)
(0 0 20.9376)
(-0 0 20.9376)
(-0 0 20.9376)
(0 0 20.9376)
(0 0 20.9376)
(0 0 20.9376)
(0 0 20.9376)
(0 0 20.9376)
(0 0 20.9376)
(0 0 20.9376)
(0 0 20.9376)
(0 0 20.9376)
(0 0 20.9376)
(0 0 20.9376)
(0 0 20.9376)
(0 0 20.9376)
(0 0 20.9376)
(0 0 20.9376)
(0 0 20.9376)
(0 0 20.9376)
(0 0 20.9376)
(0 0 20.9376)
(0 0 20.9376)
(0 0 20.9376)
(0 0 20.9376)
(0 0 20.9376)
(0 0 20.9376)
(0 0 20.9376)
(0 0 20.9376)
(0 0 20.9376)
(0 0 20.9376)
(0 0 20.9376)
(0 0 20.9376)
(0 0 20.9376)
(0 0 20.9376)
(0 0 17.6209)
(0 0 22.6124)
(0 0 19.751)
(0 0 21.713)
(-0 0 20.4559)
(0 0 21.251)
(-0 0 20.7392)
(0 0 21.0639)
(-0 0 20.8572)
(0 0 20.9888)
(-0 0 20.9051)
(0 0 20.9583)
(-0 0 20.9245)
(0 0 20.946)
(-0 0 20.9323)
(0 0 20.941)
(-0 0 20.9355)
(0 0 20.939)
(-0 0 20.9368)
(0 0 20.9382)
(-0 0 20.9373)
(0 0 20.9379)
(-0 0 20.9375)
(0 0 20.9377)
(-0 0 20.9376)
(0 0 20.9377)
(-0 0 20.9376)
(0 0 20.9377)
(-0 0 20.9376)
(0 0 20.9376)
(-0 0 20.9376)
(0 0 20.9376)
(-0 0 20.9376)
(0 0 20.9376)
(-0 0 20.9376)
(0 0 20.9376)
(-0 0 20.9376)
(0 0 20.9376)
(-0 0 20.9376)
(0 0 20.9376)
(-0 0 20.9376)
(0 0 20.9376)
(-0 0 20.9376)
(0 0 20.9376)
(-0 0 20.9376)
(0 0 20.9376)
(-0 0 20.9376)
(0 0 20.9376)
(-0 0 20.9376)
(0 0 20.9376)
(-0 0 20.9376)
(0 0 20.9376)
(-0 0 20.9376)
(0 0 20.9376)
(-0 0 20.9376)
(0 0 20.9376)
(-0 0 20.9376)
(0 0 20.9376)
(0 0 20.9376)
(0 0 20.9376)
(0 0 20.9376)
(0 0 20.9376)
(-0 0 20.9376)
(0 0 20.9376)
(0 0 20.9376)
(0 0 20.9376)
(-0 0 20.9376)
(-0 0 20.9376)
(0 0 20.9376)
(0 0 20.9376)
(0 0 20.9376)
(0 0 20.9376)
(0 0 20.9376)
(0 0 20.9376)
(0 0 20.9376)
(0 0 20.9376)
(0 0 20.9376)
(0 0 20.9376)
(0 0 20.9376)
(0 0 20.9376)
(0 0 20.9376)
(0 0 20.9376)
(0 0 20.9376)
(0 0 20.9376)
(0 0 20.9376)
(0 0 20.9376)
(0 0 20.9376)
(0 0 20.9376)
(0 0 20.9376)
(0 0 20.9376)
(0 0 20.9376)
(0 0 20.9376)
(0 0 20.9376)
(0 0 20.9376)
(0 0 20.9376)
(0 0 20.9376)
(0 0 20.9376)
(0 0 20.9376)
(0 0 20.9376)
(0 0 20.9376)
(0 0 17.6138)
(0 0 22.6058)
(0 0 19.7514)
(0 0 21.7131)
(-0 0 20.4563)
(0 0 21.2511)
(-0 0 20.7392)
(0 0 21.0639)
(-0 0 20.8572)
(0 0 20.9888)
(-0 0 20.9051)
(0 0 20.9583)
(-0 0 20.9245)
(0 0 20.946)
(-0 0 20.9323)
(0 0 20.941)
(-0 0 20.9355)
(0 0 20.939)
(-0 0 20.9368)
(0 0 20.9382)
(-0 0 20.9373)
(0 0 20.9379)
(-0 0 20.9375)
(0 0 20.9377)
(-0 0 20.9376)
(0 0 20.9377)
(-0 0 20.9376)
(0 0 20.9377)
(-0 0 20.9376)
(0 0 20.9376)
(-0 0 20.9376)
(0 0 20.9376)
(-0 0 20.9376)
(0 0 20.9376)
(-0 0 20.9376)
(0 0 20.9376)
(-0 0 20.9376)
(0 0 20.9376)
(-0 0 20.9376)
(0 0 20.9376)
(-0 0 20.9376)
(0 0 20.9376)
(-0 0 20.9376)
(0 0 20.9376)
(-0 0 20.9376)
(0 0 20.9376)
(-0 0 20.9376)
(0 0 20.9376)
(-0 0 20.9376)
(0 0 20.9376)
(-0 0 20.9376)
(0 0 20.9376)
(-0 0 20.9376)
(0 0 20.9376)
(-0 0 20.9376)
(0 0 20.9376)
(-0 0 20.9376)
(0 0 20.9376)
(0 0 20.9376)
(0 0 20.9376)
(0 0 20.9376)
(0 0 20.9376)
(-0 0 20.9376)
(-0 0 20.9376)
(-0 0 20.9376)
(0 0 20.9376)
(-0 0 20.9376)
(-0 0 20.9376)
(0 0 20.9376)
(0 0 20.9376)
(0 0 20.9376)
(0 0 20.9376)
(0 0 20.9376)
(0 0 20.9376)
(0 0 20.9376)
(0 0 20.9376)
(0 0 20.9376)
(0 0 20.9376)
(0 0 20.9376)
(0 0 20.9376)
(0 0 20.9376)
(0 0 20.9376)
(0 0 20.9376)
(0 0 20.9376)
(0 0 20.9376)
(0 0 20.9376)
(0 0 20.9376)
(0 0 20.9376)
(0 0 20.9376)
(0 0 20.9376)
(0 0 20.9376)
(0 0 20.9376)
(0 0 20.9376)
(0 0 20.9376)
(0 0 20.9376)
(0 0 20.9376)
(0 0 20.9376)
(0 0 20.9376)
(0 0 20.9376)
(0 0 20.9376)
(0 0 17.6102)
(0 0 22.6024)
(0 0 19.7516)
(0 0 21.7132)
(-0 0 20.4565)
(0 0 21.2511)
(-0 0 20.7392)
(0 0 21.064)
(-0 0 20.8572)
(0 0 20.9888)
(-0 0 20.9051)
(0 0 20.9583)
(-0 0 20.9245)
(0 0 20.946)
(-0 0 20.9323)
(0 0 20.941)
(-0 0 20.9355)
(0 0 20.939)
(-0 0 20.9368)
(0 0 20.9382)
(-0 0 20.9373)
(0 0 20.9379)
(-0 0 20.9375)
(0 0 20.9377)
(-0 0 20.9376)
(0 0 20.9377)
(-0 0 20.9376)
(0 0 20.9377)
(-0 0 20.9376)
(0 0 20.9376)
(-0 0 20.9376)
(0 0 20.9376)
(-0 0 20.9376)
(0 0 20.9376)
(-0 0 20.9376)
(0 0 20.9376)
(-0 0 20.9376)
(0 0 20.9376)
(-0 0 20.9376)
(0 0 20.9376)
(-0 0 20.9376)
(0 0 20.9376)
(-0 0 20.9376)
(0 0 20.9376)
(-0 0 20.9376)
(0 0 20.9376)
(-0 0 20.9376)
(0 0 20.9376)
(-0 0 20.9376)
(0 0 20.9376)
(-0 0 20.9376)
(0 0 20.9376)
(-0 0 20.9376)
(0 0 20.9376)
(-0 0 20.9376)
(0 0 20.9376)
(-0 0 20.9376)
(0 0 20.9376)
(0 0 20.9376)
(-0 0 20.9376)
(0 0 20.9376)
(0 0 20.9376)
(-0 0 20.9376)
(0 0 20.9376)
(0 0 20.9376)
(0 0 20.9376)
(-0 0 20.9376)
(-0 0 20.9376)
(0 0 20.9376)
(-0 0 20.9376)
(0 0 20.9376)
(0 0 20.9376)
(0 0 20.9376)
(0 0 20.9376)
(0 0 20.9376)
(0 0 20.9376)
(0 0 20.9376)
(0 0 20.9376)
(0 0 20.9376)
(0 0 20.9376)
(0 0 20.9376)
(0 0 20.9376)
(0 0 20.9376)
(0 0 20.9376)
(0 0 20.9376)
(0 0 20.9376)
(0 0 20.9376)
(0 0 20.9376)
(0 0 20.9376)
(0 0 20.9376)
(0 0 20.9376)
(0 0 20.9376)
(0 0 20.9376)
(0 0 20.9376)
(0 0 20.9376)
(0 0 20.9376)
(0 0 20.9376)
(0 0 20.9376)
(0 0 20.9376)
(0 0 20.9376)
(-0 0 17.6102)
(-0 0 22.6024)
(-0 0 19.7516)
(-0 0 21.7132)
(0 0 20.4565)
(-0 0 21.2511)
(0 0 20.7392)
(-0 0 21.064)
(0 0 20.8572)
(-0 0 20.9888)
(0 0 20.9051)
(-0 0 20.9583)
(0 0 20.9245)
(-0 0 20.946)
(0 0 20.9323)
(-0 0 20.941)
(0 0 20.9355)
(-0 0 20.939)
(0 0 20.9368)
(-0 0 20.9382)
(0 0 20.9373)
(-0 0 20.9379)
(0 0 20.9375)
(-0 0 20.9377)
(0 0 20.9376)
(-0 0 20.9377)
(0 0 20.9376)
(-0 0 20.9377)
(0 0 20.9376)
(-0 0 20.9376)
(0 0 20.9376)
(-0 0 20.9376)
(0 0 20.9376)
(-0 0 20.9376)
(0 0 20.9376)
(-0 0 20.9376)
(0 0 20.9376)
(-0 0 20.9376)
(0 0 20.9376)
(-0 0 20.9376)
(0 0 20.9376)