/*--------------------------------*- C++ -*----------------------------------*\
| =========                 |                                                 |
| \\      /  F ield         | foam-extend: Open Source CFD                    |
|  \\    /   O peration     | Version:     5.0                                |
|   \\  /    A nd           | Web:         http://www.foam-extend.org         |
|    \\/     M anipulation  |                                                 |
\*---------------------------------------------------------------------------*/
FoamFile
{
    version     2.0;
    format      ascii;
    class       surfaceScalarField;
    location    "0.5";
    object      phi;
}
// * * * * * * * * * * * * * * * * * * * * * * * * * * * * * * * * * * * * * //

dimensions      [0 3 -1 0 0 0 0];

internalField   nonuniform List<scalar> 
7860
(
0.00255977
0.00244023
0.00234051
0.000219257
0.00236261
-2.2099e-05
0.00232801
3.45941e-05
0.00235277
-2.47546e-05
0.00233807
1.46962e-05
0.0023479
-9.8323e-06
0.00234171
6.19732e-06
0.00234565
-3.94319e-06
0.00234313
2.51688e-06
0.00234473
-1.59737e-06
0.00234371
1.01652e-06
0.00234436
-6.46227e-07
0.00234395
4.10826e-07
0.00234421
-2.61192e-07
0.00234404
1.66055e-07
0.00234415
-1.05561e-07
0.00234408
6.71135e-08
0.00234413
-4.26631e-08
0.0023441
2.71243e-08
0.00234412
-1.72426e-08
0.00234411
1.09624e-08
0.00234411
-6.96869e-09
0.00234411
4.43053e-09
0.00234411
-2.81643e-09
0.00234411
1.79062e-09
0.00234411
-1.13828e-09
0.00234411
7.2369e-10
0.00234411
-4.60041e-10
0.00234411
2.92483e-10
0.00234411
-1.85928e-10
0.00234411
1.18209e-10
0.00234411
-7.51438e-11
0.00234411
4.77747e-11
0.00234411
-3.03698e-11
0.00234411
1.93085e-11
0.00234411
-1.22741e-11
0.00234411
7.80358e-12
0.00234411
-4.96071e-12
0.00234411
3.15387e-12
0.00234411
-2.00489e-12
0.00234411
1.27467e-12
0.00234411
-8.10277e-13
0.00234411
5.15179e-13
0.00234411
-3.27445e-13
0.00234411
2.08176e-13
0.00234411
-1.32346e-13
0.00234411
8.41857e-14
0.00234411
-5.35049e-14
0.00234411
3.40242e-14
0.00234411
-2.161e-14
0.00234411
1.3747e-14
0.00234411
-8.6995e-15
0.00234411
5.53172e-15
0.00234411
-3.51854e-15
0.00234411
2.26493e-15
0.00234411
-1.4358e-15
0.00234411
8.72229e-16
0.00234411
-5.6334e-16
0.00234411
3.59413e-16
0.00234411
-2.49461e-16
0.00234411
1.89734e-16
0.00234411
-1.07954e-16
0.00234411
4.2562e-17
0.00234411
-2.52329e-17
0.00234411
1.19252e-17
0.00234411
-3.96501e-17
0.00234411
4.04472e-17
0.00234411
3.20241e-17
0.00234411
-2.94907e-17
0.00234411
-2.79394e-17
0.00234411
3.80307e-18
0.00234411
-9.24255e-19
0.00234411
1.85569e-17
0.00234411
1.53217e-17
0.00234411
1.39511e-17
0.00234411
-4.62142e-18
0.00234411
6.94813e-18
0.00234411
3.99826e-17
0.00234411
5.95635e-17
0.00234411
4.41456e-17
0.00234411
5.31072e-17
0.00234411
2.04269e-17
0.00234411
6.30659e-17
0.00234411
1.0851e-16
0.00234411
1.54796e-16
0.00234411
1.34649e-16
0.00234411
1.54988e-16
0.00234411
1.89395e-16
0.00234411
2.2478e-16
0.00234411
2.66177e-16
0.00234411
2.62013e-16
0.00234411
2.69699e-16
0.00234411
3.73986e-16
0.00234411
4.54826e-16
0.00234411
4.83364e-16
0.00234411
5.15877e-16
0.00234411
4.95398e-16
0.00234411
4.5548e-16
4.24313e-16
0.00429922
0.00314102
0.00415517
0.000363304
0.00412627
6.80521e-06
0.00411945
4.14084e-05
0.00412756
-3.28584e-05
0.00412403
1.8226e-05
0.00412714
-1.29458e-05
0.00412527
8.07183e-06
0.00412647
-5.14909e-06
0.00412569
3.29984e-06
0.00412618
-2.09092e-06
0.00412587
1.33205e-06
0.00412607
-8.46887e-07
0.00412594
5.38338e-07
0.00412602
-3.42329e-07
0.00412597
2.1762e-07
0.004126
-1.38351e-07
0.00412598
8.79571e-08
0.00412599
-5.59159e-08
0.00412599
3.55484e-08
0.00412599
-2.25989e-08
0.00412599
1.43671e-08
0.00412599
-9.13347e-09
0.00412599
5.80654e-09
0.00412599
-3.69134e-09
0.00412599
2.34675e-09
0.00412599
-1.49188e-09
0.00412599
9.48451e-10
0.00412599
-6.02949e-10
0.00412599
3.83322e-10
0.00412599
-2.43685e-10
0.00412599
1.54922e-10
0.00412599
-9.84865e-11
0.00412599
6.26125e-11
0.00412599
-3.98038e-11
0.00412599
2.53052e-11
0.00412599
-1.60869e-11
0.00412599
1.02272e-11
0.00412599
-6.50166e-12
0.00412599
4.13347e-12
0.00412599
-2.62771e-12
0.00412599
1.67053e-12
0.00412599
-1.06197e-12
0.00412599
6.75162e-13
0.00412599
-4.29226e-13
0.00412599
2.72917e-13
0.00412599
-1.73527e-13
0.00412599
1.10373e-13
0.00412599
-7.013e-14
0.00412599
4.44796e-14
0.00412599
-2.84195e-14
0.00412599
1.80297e-14
0.00412599
-1.1465e-14
0.00412599
7.25529e-15
0.00412599
-4.49913e-15
0.00412599
2.99066e-15
0.00412599
-1.88584e-15
0.00412599
1.16748e-15
0.00412599
-7.47773e-16
0.00412599
4.6637e-16
0.00412599
-2.9029e-16
0.00412599
2.23687e-16
0.00412599
-1.47841e-16
0.00412599
5.30415e-17
0.00412599
5.27938e-17
0.00412599
2.57384e-17
0.00412599
-6.45944e-17
0.00412599
4.93152e-17
0.00412599
6.4135e-17
0.00412599
2.17534e-17
0.00412599
1.13367e-17
0.00412599
-2.36005e-17
0.00412599
-2.16663e-17
0.00412599
1.27411e-17
0.00412599
7.48004e-17
0.00412599
9.27495e-17
0.00412599
6.17569e-17
0.00412599
8.12596e-17
0.00412599
1.33945e-16
0.00412599
2.09847e-16
0.00412599
2.20851e-16
0.00412599
2.7932e-16
0.00412599
2.083e-16
0.00412599
2.91963e-16
0.00412599
4.55575e-16
0.00412599
5.8767e-16
0.00412599
7.38769e-16
0.00412599
8.69709e-16
0.00412599
9.51423e-16
0.00412599
1.07958e-15
0.00412599
1.37886e-15
0.00412599
1.54296e-15
0.00412599
1.56272e-15
0.00412599
1.94068e-15
0.00412599
2.25506e-15
0.00412599
2.32436e-15
0.00412599
2.60616e-15
0.00412599
2.58649e-15
0.00412599
2.53558e-15
1.6666e-15
0.00493579
0.00320522
0.00484572
0.00045338
0.00480397
4.85497e-05
0.00480659
3.87905e-05
0.00480829
-3.45615e-05
0.00480893
1.7592e-05
0.00480948
-1.3499e-05
0.00480925
8.30105e-06
0.00480941
-5.31276e-06
0.00480929
3.42178e-06
0.00480936
-2.16372e-06
0.00480932
1.38037e-06
0.00480935
-8.77657e-07
0.00480933
5.57843e-07
0.00480934
-3.54813e-07
0.00480933
2.25537e-07
0.00480934
-1.43394e-07
0.00480933
9.11604e-08
0.00480934
-5.79547e-08
0.00480933
3.68431e-08
0.00480934
-2.3423e-08
0.00480933
1.48904e-08
0.00480933
-9.46654e-09
0.00480933
6.01803e-09
0.00480933
-3.82595e-09
0.00480933
2.43222e-09
0.00480933
-1.54628e-09
0.00480933
9.82996e-10
0.00480933
-6.24937e-10
0.00480933
3.97283e-10
0.00480933
-2.52571e-10
0.00480933
1.60565e-10
0.00480933
-1.02078e-10
0.00480933
6.48933e-11
0.00480933
-4.12551e-11
0.00480933
2.6227e-11
0.00480933
-1.66735e-11
0.00480933
1.05998e-11
0.00480933
-6.73875e-12
0.00480933
4.28408e-12
0.00480933
-2.7235e-12
0.00480933
1.73137e-12
0.00480933
-1.10074e-12
0.00480933
6.9976e-13
0.00480933
-4.44807e-13
0.00480933
2.82841e-13
0.00480933
-1.79785e-13
0.00480933
1.14391e-13
0.00480933
-7.27408e-14
0.00480933
4.61994e-14
0.00480933
-2.93776e-14
0.00480933
1.86857e-14
0.00480933
-1.1846e-14
0.00480933
7.48552e-15
0.00480933
-4.72667e-15
0.00480933
3.06965e-15
0.00480933
-1.99184e-15
0.00480933
1.24775e-15
0.00480933
-6.98362e-16
0.00480933
5.03843e-16
0.00480933
-2.93506e-16
0.00480933
2.30073e-16
0.00480933
-1.59958e-16
0.00480933
5.11162e-17
0.00480933
1.5366e-17
0.00480933
1.8427e-17
0.00480933
-9.16287e-17
0.00480933
6.86993e-17
0.00480933
9.62916e-17
0.00480933
4.86239e-17
0.00480933
1.39369e-17
0.00480933
-6.0045e-17
0.00480933
-7.26582e-18
0.00480933
5.2791e-17
0.00480933
1.22349e-16
0.00480933
1.25272e-16
0.00480933
1.20492e-16
0.00480933
2.26117e-16
0.00480933
2.85773e-16
0.00480933
3.7094e-16
0.00480933
4.08642e-16
0.00480933
5.41362e-16
0.00480933
5.04352e-16
0.00480933
6.17301e-16
0.00480933
8.31682e-16
0.00480933
1.11591e-15
0.00480933
1.52424e-15
0.00480933
1.81792e-15
0.00480933
1.94945e-15
0.00480933
2.22266e-15
0.00480933
2.83082e-15
0.00480933
3.23591e-15
0.00480933
3.23885e-15
0.00480933
3.99628e-15
0.00480933
4.63255e-15
0.00480933
4.7532e-15
0.00480933
5.3878e-15
0.00480933
5.39922e-15
0.00480933
5.21984e-15
3.21755e-15
0.00515508
0.00305014
0.00510278
0.000505686
0.00506522
8.61048e-05
0.00507007
3.39436e-05
0.0050696
-3.40933e-05
0.0050715
1.56912e-05
0.00507121
-1.32064e-05
0.00507152
7.99056e-06
0.00507134
-5.13432e-06
0.00507144
3.32563e-06
0.00507137
-2.0979e-06
0.00507141
1.34058e-06
0.00507139
-8.52386e-07
0.0050714
5.41736e-07
0.00507139
-3.4465e-07
0.0050714
2.1906e-07
0.00507139
-1.39285e-07
0.0050714
8.85462e-08
0.00507139
-5.62941e-08
0.0050714
3.57867e-08
0.0050714
-2.2752e-08
0.0050714
1.44634e-08
0.0050714
-9.19537e-09
0.0050714
5.84547e-09
0.0050714
-3.71636e-09
0.0050714
2.36248e-09
0.0050714
-1.50199e-09
0.0050714
9.54811e-10
0.0050714
-6.07035e-10
0.0050714
3.85892e-10
0.0050714
-2.45336e-10
0.0050714
1.55961e-10
0.0050714
-9.91534e-11
0.0050714
6.3033e-11
0.0050714
-4.0073e-11
0.0050714
2.54751e-11
0.0050714
-1.61958e-11
0.0050714
1.02958e-11
0.0050714
-6.54566e-12
0.0050714
4.16127e-12
0.0050714
-2.64543e-12
0.0050714
1.68179e-12
0.0050714
-1.06911e-12
0.0050714
6.79689e-13
0.0050714
-4.32055e-13
0.0050714
2.74784e-13
0.0050714
-1.74688e-13
0.0050714
1.11133e-13
0.0050714
-7.06352e-14
0.0050714
4.48305e-14
0.0050714
-2.85094e-14
0.0050714
1.81166e-14
0.0050714
-1.14924e-14
0.0050714
7.2979e-15
0.0050714
-4.53493e-15
0.0050714
3.02816e-15
0.0050714
-1.90463e-15
0.0050714
1.21214e-15
0.0050714
-6.52047e-16
0.0050714
5.11508e-16
0.0050714
-3.38407e-16
0.0050714
2.29729e-16
0.0050714
-1.06137e-16
0.0050714
3.70926e-17
0.0050714
1.80874e-17
0.0050714
7.59375e-17
0.0050714
-7.68294e-17
0.0050714
1.20091e-17
0.0050714
5.72517e-17
0.0050714
7.04683e-17
0.0050714
3.29768e-17
0.0050714
-2.66149e-17
0.0050714
-7.1388e-17
0.0050714
1.05397e-16
0.0050714
1.39958e-16
0.0050714
1.75221e-16
0.0050714
2.08296e-16
0.0050714
3.4045e-16
0.0050714
4.31891e-16
0.0050714
5.59892e-16
0.0050714
6.40062e-16
0.0050714
8.34245e-16
0.0050714
8.28458e-16
0.0050714
9.36237e-16
0.0050714
1.1922e-15
0.0050714
1.62156e-15
0.0050714
2.31829e-15
0.0050714
2.85083e-15
0.0050714
3.03759e-15
0.0050714
3.34782e-15
0.0050714
4.30602e-15
0.0050714
5.04489e-15
0.0050714
5.08475e-15
0.0050714
6.16117e-15
0.0050714
7.12975e-15
0.0050714
7.30877e-15
0.0050714
8.26803e-15
0.0050714
8.3728e-15
0.0050714
8.13153e-15
4.86849e-15
0.00522605
0.00282409
0.00519713
0.000534603
0.00516645
0.000116786
0.00517127
2.912e-05
0.00516998
-3.28032e-05
0.00517219
1.34876e-05
0.0051716
-1.26183e-05
0.00517209
7.50047e-06
0.00517179
-4.84071e-06
0.00517197
3.15471e-06
0.00517185
-1.98486e-06
0.00517192
1.27065e-06
0.00517188
-8.07935e-07
0.00517191
5.13447e-07
0.00517189
-3.26731e-07
0.0051719
2.07657e-07
0.00517189
-1.32041e-07
0.0051719
8.39409e-08
0.00517189
-5.3367e-08
0.0051719
3.39255e-08
0.00517189
-2.15691e-08
0.0051719
1.37112e-08
0.00517189
-8.71729e-09
0.0051719
5.54147e-09
0.00517189
-3.52314e-09
0.0051719
2.23962e-09
0.0051719
-1.4239e-09
0.0051719
9.05155e-10
0.0051719
-5.75475e-10
0.0051719
3.65824e-10
0.0051719
-2.3258e-10
0.0051719
1.47851e-10
0.0051719
-9.39979e-11
0.0051719
5.97554e-11
0.0051719
-3.79892e-11
0.0051719
2.41505e-11
0.0051719
-1.53535e-11
0.0051719
9.76046e-12
0.0051719
-6.20528e-12
0.0051719
3.94486e-12
0.0051719
-2.5078e-12
0.0051719
1.59442e-12
0.0051719
-1.01354e-12
0.0051719
6.44394e-13
0.0051719
-4.0957e-13
0.0051719
2.60551e-13
0.0051719
-1.65548e-13
0.0051719
1.0537e-13
0.0051719
-6.69765e-14
0.0051719
4.2551e-14
0.0051719
-2.70033e-14
0.0051719
1.71791e-14
0.0051719
-1.09675e-14
0.0051719
6.94897e-15
0.0051719
-4.32781e-15
0.0051719
2.85075e-15
0.0051719
-1.74221e-15
0.0051719
1.16136e-15
0.0051719
-6.17563e-16
0.0051719
4.9718e-16
0.0051719
-2.8625e-16
0.0051719
2.86781e-16
0.0051719
-1.41337e-16
0.0051719
6.32357e-17
0.0051719
-9.68511e-19
0.0051719
6.2908e-17
0.0051719
-8.34419e-17
0.0051719
4.79613e-17
0.0051719
7.08878e-17
0.0051719
9.47535e-17
0.0051719
3.48788e-17
0.0051719
-2.87713e-17
0.0051719
-2.57118e-17
0.0051719
1.51518e-16
0.0051719
1.67396e-16
0.0051719
2.73489e-16
0.0051719
3.17773e-16
0.0051719
5.10459e-16
0.0051719
5.41036e-16
0.0051719
7.79969e-16
0.0051719
8.96211e-16
0.0051719
1.1187e-15
0.0051719
1.16482e-15
0.0051719
1.27412e-15
0.0051719
1.51064e-15
0.0051719
2.05304e-15
0.0051719
3.10247e-15
0.0051719
3.91849e-15
0.0051719
4.15108e-15
0.0051719
4.47008e-15
0.0051719
5.70874e-15
0.0051719
6.8018e-15
0.0051719
6.89843e-15
0.0051719
8.29111e-15
0.0051719
9.60863e-15
0.0051719
9.82122e-15
0.0051719
1.09835e-14
0.0051719
1.13084e-14
0.0051719
1.10955e-14
6.49051e-15
0.00524139
0.0025827
0.00522918
0.000546819
0.00520608
0.000139887
0.00521027
2.49257e-05
0.00520864
-3.11727e-05
0.0052108
1.13296e-05
0.00521011
-1.19253e-05
0.00521065
6.95755e-06
0.00521032
-4.51156e-06
0.00521052
2.95903e-06
0.00521039
-1.8566e-06
0.00521047
1.19083e-06
0.00521042
-7.57182e-07
0.00521045
4.8116e-07
0.00521043
-3.06261e-07
0.00521044
1.94634e-07
0.00521043
-1.23766e-07
0.00521044
7.86809e-08
0.00521043
-5.0023e-08
0.00521044
3.17997e-08
0.00521044
-2.02177e-08
0.00521044
1.28521e-08
0.00521044
-8.17114e-09
0.00521044
5.19425e-09
0.00521044
-3.30241e-09
0.00521044
2.09929e-09
0.00521044
-1.33469e-09
0.00521044
8.48439e-10
0.00521044
-5.3942e-10
0.00521044
3.42902e-10
0.00521044
-2.18008e-10
0.00521044
1.38587e-10
0.00521044
-8.81082e-11
0.00521044
5.60115e-11
0.00521044
-3.56087e-11
0.00521044
2.26375e-11
0.00521044
-1.43915e-11
0.00521044
9.14896e-12
0.00521044
-5.81652e-12
0.00521044
3.69773e-12
0.00521044
-2.35062e-12
0.00521044
1.49454e-12
0.00521044
-9.49977e-13
0.00521044
6.04008e-13
0.00521044
-3.8391e-13
0.00521044
2.44209e-13
0.00521044
-1.5528e-13
0.00521044
9.88016e-14
0.00521044
-6.27811e-14
0.00521044
3.98644e-14
0.00521044
-2.52475e-14
0.00521044
1.60813e-14
0.00521044
-1.02776e-14
0.00521044
6.54347e-15
0.00521044
-4.10182e-15
0.00521044
2.72343e-15
0.00521044
-1.63435e-15
0.00521044
1.11878e-15
0.00521044
-6.08663e-16
0.00521044
3.98483e-16
0.00521044
-3.13294e-16
0.00521044
2.71239e-16
0.00521044
-1.22667e-16
0.00521044
5.30669e-17
0.00521044
-5.75965e-18
0.00521044
8.1841e-17
0.00521044
-4.83785e-17
0.00521044
-3.02813e-18
0.00521044
4.55902e-17
0.00521044
-7.41717e-18
0.00521044
5.73458e-17
0.00521044
-2.0906e-17
0.00521044
-2.12057e-17
0.00521044
1.58737e-16
0.00521044
1.9237e-16
0.00521044
3.17799e-16
0.00521044
3.69913e-16
0.00521044
6.4871e-16
0.00521044
6.19522e-16
0.00521044
9.57853e-16
0.00521044
1.09635e-15
0.00521044
1.42747e-15
0.00521044
1.53818e-15
0.00521044
1.58117e-15
0.00521044
1.79432e-15
0.00521044
2.43431e-15
0.00521044
3.78221e-15
0.00521044
4.97134e-15
0.00521044
5.24108e-15
0.00521044
5.57666e-15
0.00521044
6.99485e-15
0.00521044
8.40013e-15
0.00521044
8.7065e-15
0.00521044
1.02276e-14
0.00521044
1.18847e-14
0.00521044
1.23284e-14
0.00521044
1.35452e-14
0.00521044
1.41232e-14
0.00521044
1.40313e-14
8.09011e-15
0.00523787
0.00234483
0.00523813
0.000546564
0.00522196
0.000156058
0.00522544
2.1442e-05
0.00522362
-2.93556e-05
0.00522562
9.33636e-06
0.00522488
-1.11866e-05
0.00522543
6.40323e-06
0.00522509
-4.17253e-06
0.0052253
2.75452e-06
0.00522517
-1.72337e-06
0.00522525
1.10758e-06
0.0052252
-7.04238e-07
0.00522523
4.47488e-07
0.00522521
-2.84899e-07
0.00522522
1.81047e-07
0.00522521
-1.15131e-07
0.00522522
7.31921e-08
0.00522522
-4.65334e-08
0.00522522
2.95815e-08
0.00522522
-1.88074e-08
0.00522522
1.19555e-08
0.00522522
-7.60118e-09
0.00522522
4.83191e-09
0.00522522
-3.07206e-09
0.00522522
1.95285e-09
0.00522522
-1.24159e-09
0.00522522
7.89256e-10
0.00522522
-5.01793e-10
0.00522522
3.18983e-10
0.00522522
-2.02801e-10
0.00522522
1.2892e-10
0.00522522
-8.1962e-11
0.00522522
5.21049e-11
0.00522522
-3.31244e-11
0.00522522
2.10585e-11
0.00522522
-1.33876e-11
0.00522522
8.51086e-12
0.00522522
-5.41069e-12
0.00522522
3.43988e-12
0.00522522
-2.18661e-12
0.00522522
1.39028e-12
0.00522522
-8.83745e-13
0.00522522
5.61863e-13
0.00522522
-3.57151e-13
0.00522522
2.27129e-13
0.00522522
-1.44399e-13
0.00522522
9.18022e-14
0.00522522
-5.83896e-14
0.00522522
3.71093e-14
0.00522522
-2.35457e-14
0.00522522
1.4962e-14
0.00522522
-9.56308e-15
0.00522522
6.09194e-15
0.00522522
-3.81267e-15
0.00522522
2.56766e-15
0.00522522
-1.45615e-15
0.00522522
1.02325e-15
0.00522522
-5.75252e-16
0.00522522
3.85933e-16
0.00522522
-2.68726e-16
0.00522522
3.45523e-16
0.00522522
-9.49276e-17
0.00522522
7.32176e-17
0.00522522
4.24183e-17
0.00522522
8.23563e-17
0.00522522
-5.77592e-17
0.00522522
-1.47555e-17
0.00522522
3.97646e-17
0.00522522
9.817e-18
0.00522522
9.96169e-17
0.00522522
2.1957e-17
0.00522522
4.95159e-18
0.00522522
1.68016e-16
0.00522522
2.36889e-16
0.00522522
3.8399e-16
0.00522522
4.12859e-16
0.00522522
7.74558e-16
0.00522522
7.57292e-16
0.00522522
1.0978e-15
0.00522522
1.3541e-15
0.00522522
1.74614e-15
0.00522522
1.81747e-15
0.00522522
1.88503e-15
0.00522522
2.13259e-15
0.00522522
2.84572e-15
0.00522522
4.40227e-15
0.00522522
5.88091e-15
0.00522522
6.29561e-15
0.00522522
6.68517e-15
0.00522522
8.19845e-15
0.00522522
9.88818e-15
0.00522522
1.04367e-14
0.00522522
1.20601e-14
0.00522522
1.39187e-14
0.00522522
1.46648e-14
0.00522522
1.6116e-14
0.00522522
1.6666e-14
0.00522522
1.67708e-14
9.67854e-15
0.0052281
0.00211673
0.00523848
0.000536183
0.0052286
0.000165936
0.00523147
1.85729e-05
0.00522953
-2.74164e-05
0.00523131
7.55129e-06
0.00523055
-1.0422e-05
0.0052311
5.85263e-06
0.00523076
-3.83286e-06
0.00523097
2.54675e-06
0.00523083
-1.58884e-06
0.00523092
1.02316e-06
0.00523086
-6.50552e-07
0.0052309
4.1335e-07
0.00523088
-2.63229e-07
0.00523089
1.67267e-07
0.00523088
-1.06372e-07
0.00523089
6.76245e-08
0.00523088
-4.29936e-08
0.00523089
2.73314e-08
0.00523088
-1.73769e-08
0.00523089
1.10461e-08
0.00523088
-7.02301e-09
0.00523089
4.46438e-09
0.00523088
-2.83839e-09
0.00523089
1.80431e-09
0.00523088
-1.14715e-09
0.00523089
7.29222e-10
0.00523088
-4.63625e-10
0.00523088
2.9472e-10
0.00523088
-1.87375e-10
0.00523088
1.19115e-10
0.00523088
-7.57273e-11
0.00523088
4.8142e-11
0.00523088
-3.06046e-11
0.00523088
1.94569e-11
0.00523088
-1.23691e-11
0.00523088
7.86357e-12
0.00523088
-4.99901e-12
0.00523088
3.1783e-12
0.00523088
-2.02032e-12
0.00523088
1.28454e-12
0.00523088
-8.16439e-13
0.00523088
5.19161e-13
0.00523088
-3.29962e-13
0.00523088
2.09908e-13
0.00523088
-1.33416e-13
0.00523088
8.48673e-14
0.00523088
-5.39881e-14
0.00523088
3.42461e-14
0.00523088
-2.17262e-14
0.00523088
1.37957e-14
0.00523088
-8.79667e-15
0.00523088
5.63235e-15
0.00523088
-3.41531e-15
0.00523088
2.3304e-15
0.00523088
-1.40442e-15
0.00523088
9.14962e-16
0.00523088
-5.29608e-16
0.00523088
3.04311e-16
0.00523088
-2.73299e-16
0.00523088
2.80737e-16
0.00523088
-1.29289e-16
0.00523088
5.87135e-17
0.00523088
2.7507e-17
0.00523088
7.36405e-17
0.00523088
-8.29137e-17
0.00523088
-1.67695e-17
0.00523088
6.56669e-17
0.00523088
-2.90704e-17
0.00523088
1.01147e-16
0.00523088
4.13579e-17
0.00523088
-5.29734e-17
0.00523088
1.85668e-16
0.00523088
3.14583e-16
0.00523088
4.47995e-16
0.00523088
4.42377e-16
0.00523088
8.65868e-16
0.00523088
9.03729e-16
0.00523088
1.22824e-15
0.00523088
1.52771e-15
0.00523088
2.06931e-15
0.00523088
2.0997e-15
0.00523088
2.18597e-15
0.00523088
2.4672e-15
0.00523088
3.20507e-15
0.00523088
4.93692e-15
0.00523088
6.67822e-15
0.00523088
7.30635e-15
0.00523088
7.73766e-15
0.00523088
9.26903e-15
0.00523088
1.12237e-14
0.00523088
1.20439e-14
0.00523088
1.38338e-14
0.00523088
1.57529e-14
0.00523088
1.68197e-14
0.00523088
1.85487e-14
0.00523088
1.89872e-14
0.00523088
1.92226e-14
1.11275e-14
0.00521702
0.00189971
0.00523588
0.000517322
0.0052316
0.000170219
0.00523398
1.61899e-05
0.00523195
-2.53823e-05
0.00523351
5.98654e-06
0.00523273
-9.63726e-06
0.00523327
5.31094e-06
0.00523293
-3.49556e-06
0.00523314
2.33748e-06
0.00523301
-1.45417e-06
0.00523309
9.38296e-07
0.00523304
-5.96582e-07
0.00523307
3.79036e-07
0.00523305
-2.41436e-07
0.00523306
1.5341e-07
0.00523306
-9.75634e-08
0.00523306
6.20254e-08
0.00523306
-3.94337e-08
0.00523306
2.50685e-08
0.00523306
-1.59382e-08
0.00523306
1.01316e-08
0.00523306
-6.44156e-09
0.00523306
4.09476e-09
0.00523306
-2.60339e-09
0.00523306
1.65492e-09
0.00523306
-1.05217e-09
0.00523306
6.68848e-10
0.00523306
-4.2524e-10
0.00523306
2.7032e-10
0.00523306
-1.71861e-10
0.00523306
1.09253e-10
0.00523306
-6.94571e-11
0.00523306
4.41566e-11
0.00523306
-2.80703e-11
0.00523306
1.78461e-11
0.00523306
-1.13449e-11
0.00523306
7.2126e-12
0.00523306
-4.58504e-12
0.00523306
2.91525e-12
0.00523306
-1.85301e-12
0.00523306
1.17817e-12
0.00523306
-7.488e-13
0.00523306
4.76174e-13
0.00523306
-3.02647e-13
0.00523306
1.92517e-13
0.00523306
-1.22351e-13
0.00523306
7.78397e-14
0.00523306
-4.94698e-14
0.00523306
3.14046e-14
0.00523306
-1.9871e-14
0.00523306
1.26551e-14
0.00523306
-8.08697e-15
0.00523306
5.14613e-15
0.00523306
-3.11972e-15
0.00523306
2.12826e-15
0.00523306
-1.33693e-15
0.00523306
7.94884e-16
0.00523306
-4.65167e-16
0.00523306
2.54453e-16
0.00523306
-2.56366e-16
0.00523306
2.52843e-16
0.00523306
-1.73694e-16
0.00523306
3.37886e-17
0.00523306
5.81749e-17
0.00523306
1.70452e-17
0.00523306
-1.27099e-16
0.00523306
2.92393e-17
0.00523306
-9.27727e-18
0.00523306
7.67299e-18
0.00523306
1.07637e-16
0.00523306
3.49733e-17
0.00523306
-6.56758e-17
0.00523306
1.39775e-16
0.00523306
2.87472e-16
0.00523306
4.95304e-16
0.00523306
5.11575e-16
0.00523306
9.62288e-16
0.00523306
9.91207e-16
0.00523306
1.36595e-15
0.00523306
1.64528e-15
0.00523306
2.34067e-15
0.00523306
2.3414e-15
0.00523306
2.47152e-15
0.00523306
2.79709e-15
0.00523306
3.55225e-15
0.00523306
5.3599e-15
0.00523306
7.32989e-15
0.00523306
8.23798e-15
0.00523306
8.76356e-15
0.00523306
1.03362e-14
0.00523306
1.23791e-14
0.00523306
1.3449e-14
0.00523306
1.55107e-14
0.00523306
1.74455e-14
0.00523306
1.87791e-14
0.00523306
2.07953e-14
0.00523306
2.11206e-14
0.00523306
2.14162e-14
1.24447e-14
0.00520628
0.00169343
0.00523242
0.000491175
0.00523311
0.000169527
0.00523514
1.41672e-05
0.00523303
-2.32713e-05
0.00523437
4.64139e-06
0.00523357
-8.83405e-06
0.0052341
4.78017e-06
0.00523376
-3.16176e-06
0.00523397
2.12733e-06
0.00523384
-1.31981e-06
0.00523393
8.53245e-07
0.00523387
-5.42493e-07
0.00523391
3.44652e-07
0.00523388
-2.19586e-07
0.0052339
1.39518e-07
0.00523389
-8.87324e-08
0.00523389
5.64118e-08
0.00523389
-3.58647e-08
0.00523389
2.27997e-08
0.00523389
-1.44957e-08
0.00523389
9.21466e-09
0.00523389
-5.85859e-09
0.00523389
3.72418e-09
0.00523389
-2.36778e-09
0.00523389
1.50515e-09
0.00523389
-9.56951e-10
0.00523389
6.08317e-10
0.00523389
-3.86755e-10
0.00523389
2.45856e-10
0.00523389
-1.56307e-10
0.00523389
9.93663e-11
0.00523389
-6.31706e-11
0.00523389
4.01607e-11
0.00523389
-2.55296e-11
0.00523389
1.62313e-11
0.00523389
-1.03181e-11
0.00523389
6.55991e-12
0.00523389
-4.17002e-12
0.00523389
2.65136e-12
0.00523389
-1.68525e-12
0.00523389
1.07157e-12
0.00523389
-6.80996e-13
0.00523389
4.33107e-13
0.00523389
-2.75165e-13
0.00523389
1.75104e-13
0.00523389
-1.11258e-13
0.00523389
7.07408e-14
0.00523389
-4.50306e-14
0.00523389
2.85762e-14
0.00523389
-1.80279e-14
0.00523389
1.14497e-14
0.00523389
-7.38338e-15
0.00523389
4.76297e-15
0.00523389
-2.79519e-15
0.00523389
1.8789e-15
0.00523389
-1.21473e-15
0.00523389
7.47665e-16
0.00523389
-3.86868e-16
0.00523389
1.50777e-16
0.00523389
-2.33773e-16
0.00523389
2.78518e-16
0.00523389
-2.1055e-16
0.00523389
5.13454e-17
0.00523389
7.16722e-17
0.00523389
-1.38694e-17
0.00523389
-1.07455e-16
0.00523389
5.86141e-19
0.00523389
3.53057e-17
0.00523389
3.78856e-18
0.00523389
1.01517e-16
0.00523389
4.76021e-17
0.00523389
-4.71709e-17
0.00523389
1.70391e-16
0.00523389
3.13542e-16
0.00523389
5.08504e-16
0.00523389
5.96148e-16
0.00523389
1.05293e-15
0.00523389
1.11748e-15
0.00523389
1.52396e-15
0.00523389
1.80161e-15
0.00523389
2.55035e-15
0.00523389
2.57238e-15
0.00523389
2.81452e-15
0.00523389
3.15814e-15
0.00523389
3.87829e-15
0.00523389
5.68109e-15
0.00523389
7.79154e-15
0.00523389
9.06563e-15
0.00523389
9.82145e-15
0.00523389
1.1332e-14
0.00523389
1.33659e-14
0.00523389
1.46053e-14
0.00523389
1.70294e-14
0.00523389
1.90686e-14
0.00523389
2.04483e-14
0.00523389
2.26878e-14
0.00523389
2.31004e-14
0.00523389
2.34509e-14
1.36067e-14
0.00519645
0.00149698
0.00522891
0.000458714
0.00523399
0.000164447
0.00523576
1.24022e-05
0.00523358
-2.10959e-05
0.00523471
3.50806e-06
0.00523389
-8.0129e-06
0.00523441
4.26091e-06
0.00523408
-2.8318e-06
0.00523429
1.9165e-06
0.00523416
-1.18589e-06
0.00523425
7.68092e-07
0.00523419
-4.88343e-07
0.00523423
3.10233e-07
0.0052342
-1.97701e-07
0.00523422
1.25607e-07
0.00523421
-7.98877e-08
0.00523421
5.07894e-08
0.00523421
-3.229e-08
0.00523421
2.05274e-08
0.00523421
-1.3051e-08
0.00523421
8.29629e-09
0.00523421
-5.2747e-09
0.00523421
3.35301e-09
0.00523421
-2.1318e-09
0.00523421
1.35514e-09
0.00523421
-8.61577e-10
0.00523421
5.47691e-10
0.00523421
-3.48209e-10
0.00523421
2.21354e-10
0.00523421
-1.40728e-10
0.00523421
8.94638e-11
0.00523421
-5.68741e-11
0.00523421
3.61586e-11
0.00523421
-2.2985e-11
0.00523421
1.46138e-11
0.00523421
-9.28962e-12
0.00523421
5.90623e-12
0.00523421
-3.75433e-12
0.00523421
2.38717e-12
0.00523421
-1.51719e-12
0.00523421
9.64808e-13
0.00523421
-6.13113e-13
0.00523421
3.8998e-13
0.00523421
-2.47735e-13
0.00523421
1.57734e-13
0.00523421
-1.00205e-13
0.00523421
6.36883e-14
0.00523421
-4.04991e-14
0.00523421
2.5765e-14
0.00523421
-1.624e-14
0.00523421
1.03555e-14
0.00523421
-6.64986e-15
0.00523421
4.31451e-15
0.00523421
-2.49034e-15
0.00523421
1.69652e-15
0.00523421
-1.0847e-15
0.00523421
6.99272e-16
0.00523421
-3.29827e-16
0.00523421
1.17444e-16
0.00523421
-2.19775e-16
0.00523421
2.10146e-16
0.00523421
-1.62338e-16
0.00523421
7.46721e-17
0.00523421
8.21913e-17
0.00523421
9.55419e-18
0.00523421
-8.03825e-17
0.00523421
-2.04331e-17
0.00523421
4.47945e-17
0.00523421
-8.31769e-18
0.00523421
6.64177e-17
0.00523421
1.6477e-17
0.00523421
-6.51014e-18
0.00523421
1.79226e-16
0.00523421
3.24457e-16
0.00523421
5.71435e-16
0.00523421
6.26067e-16
0.00523421
1.15317e-15
0.00523421
1.20853e-15
0.00523421
1.66544e-15
0.00523421
1.90901e-15
0.00523421
2.73966e-15
0.00523421
2.76993e-15
0.00523421
3.13757e-15
0.00523421
3.49366e-15
0.00523421
4.19473e-15
0.00523421
5.93596e-15
0.00523421
8.08363e-15
0.00523421
9.68617e-15
0.00523421
1.07996e-14
0.00523421
1.22853e-14
0.00523421
1.42915e-14
0.00523421
1.55783e-14
0.00523421
1.82048e-14
0.00523421
2.04895e-14
0.00523421
2.19656e-14
0.00523421
2.43079e-14
0.00523421
2.47687e-14
0.00523421
2.5294e-14
1.46762e-14
0.00518769
0.0013093
0.00522563
0.000420768
0.00523457
0.00015551
0.00523616
1.08151e-05
0.00523393
-1.88668e-05
0.00523486
2.57438e-06
0.00523402
-7.17434e-06
0.00523453
3.75314e-06
0.0052342
-2.5057e-06
0.00523442
1.7051e-06
0.00523428
-1.05249e-06
0.00523437
6.82874e-07
0.00523431
-4.34153e-07
0.00523435
2.75794e-07
0.00523433
-1.75792e-07
0.00523434
1.11681e-07
0.00523433
-7.10331e-08
0.00523434
4.51606e-08
0.00523433
-2.87113e-08
0.00523434
1.82525e-08
0.00523433
-1.16047e-08
0.00523434
7.37686e-09
0.00523433
-4.69014e-09
0.00523433
2.98142e-09
0.00523433
-1.89555e-09
0.00523433
1.20496e-09
0.00523433
-7.66094e-10
0.00523433
4.86995e-10
0.00523433
-3.09619e-10
0.00523433
1.96824e-10
0.00523433
-1.25132e-10
0.00523433
7.95498e-11
0.00523433
-5.05706e-11
0.00523433
3.21517e-11
0.00523433
-2.04374e-11
0.00523433
1.29944e-11
0.00523433
-8.25997e-12
0.00523433
5.2518e-12
0.00523433
-3.33825e-12
0.00523433
2.12262e-12
0.00523433
-1.34899e-12
0.00523433
8.57945e-13
0.00523433
-5.45193e-13
0.00523433
3.46721e-13
0.00523433
-2.20305e-13
0.00523433
1.40294e-13
0.00523433
-8.90995e-14
0.00523433
5.67131e-14
0.00523433
-3.59681e-14
0.00523433
2.29424e-14
0.00523433
-1.44496e-14
0.00523433
9.15623e-15
0.00523433
-5.88536e-15
0.00523433
3.90981e-15
0.00523433
-2.19905e-15
0.00523433
1.466e-15
0.00523433
-9.65527e-16
0.00523433
6.83219e-16
0.00523433
-2.25286e-16
0.00523433
1.47876e-16
0.00523433
-1.65712e-16
0.00523433
1.76996e-16
0.00523433
-1.73767e-16
0.00523433
8.62405e-17
0.00523433
2.37932e-17
0.00523433
-1.20515e-17
0.00523433
-8.43058e-17
0.00523433
-4.91851e-17
0.00523433
6.19878e-17
0.00523433
-4.67434e-18
0.00523433
4.37374e-17
0.00523433
3.74747e-17
0.00523433
-2.67233e-17
0.00523433
2.26106e-16
0.00523433
3.39077e-16
0.00523433
5.73206e-16
0.00523433
6.64287e-16
0.00523433
1.18702e-15
0.00523433
1.25794e-15
0.00523433
1.799e-15
0.00523433
2.04731e-15
0.00523433
2.85343e-15
0.00523433
2.911e-15
0.00523433
3.46931e-15
0.00523433
3.82546e-15
0.00523433
4.46469e-15
0.00523433
6.14841e-15
0.00523433
8.23714e-15
0.00523433
1.01456e-14
0.00523433
1.15746e-14
0.00523433
1.30989e-14
0.00523433
1.5118e-14
0.00523433
1.64334e-14
0.00523433
1.9111e-14
0.00523433
2.16142e-14
0.00523433
2.32792e-14
0.00523433
2.5738e-14
0.00523433
2.60894e-14
0.00523433
2.67369e-14
1.55738e-14
0.00518
0.00112929
0.00522269
0.00037808
0.00523499
0.000143214
0.00523646
9.34639e-06
0.00523418
-1.65931e-05
0.00523493
1.82488e-06
0.00523408
-6.31911e-06
0.00523457
3.25645e-06
0.00523425
-2.18331e-06
0.00523446
1.49318e-06
0.00523433
-9.19593e-07
0.00523441
5.97607e-07
0.00523436
-3.79934e-07
0.0052344
2.41341e-07
0.00523437
-1.53861e-07
0.00523439
9.77443e-08
0.00523438
-6.21706e-08
0.00523438
3.95265e-08
0.00523438
-2.51293e-08
0.00523438
1.59754e-08
0.00523438
-1.01569e-08
0.00523438
6.45657e-09
0.00523438
-4.10503e-09
0.00523438
2.60948e-09
0.00523438
-1.65907e-09
0.00523438
1.05464e-09
0.00523438
-6.7052e-10
0.00523438
4.26241e-10
0.00523438
-2.70992e-10
0.00523438
1.7227e-10
0.00523438
-1.0952e-10
0.00523438
6.96264e-11
0.00523438
-4.42611e-11
0.00523438
2.8141e-11
0.00523438
-1.78874e-11
0.00523438
1.13735e-11
0.00523438
-7.2294e-12
0.00523438
4.59671e-12
0.00523438
-2.92172e-12
0.00523438
1.85781e-12
0.00523438
-1.18068e-12
0.00523438
7.50997e-13
0.00523438
-4.77168e-13
0.00523438
3.03533e-13
0.00523438
-1.92801e-13
0.00523438
1.22783e-13
0.00523438
-7.80206e-14
0.00523438
4.96109e-14
0.00523438
-3.14424e-14
0.00523438
2.00636e-14
0.00523438
-1.26862e-14
0.00523438
8.04658e-15
0.00523438
-5.17527e-15
0.00523438
3.45529e-15
0.00523438
-1.93207e-15
0.00523438
1.25774e-15
0.00523438
-7.94549e-16
0.00523438
5.77007e-16
0.00523438
-9.11487e-17
0.00523438
1.11446e-16
0.00523438
-1.18079e-16
0.00523438
1.8344e-16
0.00523438
-1.75923e-16
0.00523438
8.42301e-17
0.00523438
5.35179e-17
0.00523438
1.96433e-17
0.00523438
-6.72554e-17
0.00523438
-6.47343e-17
0.00523438