/*--------------------------------*- C++ -*----------------------------------*\
| =========                 |                                                 |
| \\      /  F ield         | foam-extend: Open Source CFD                    |
|  \\    /   O peration     | Version:     5.0                                |
|   \\  /    A nd           | Web:         http://www.foam-extend.org         |
|    \\/     M anipulation  |                                                 |
\*---------------------------------------------------------------------------*/
FoamFile
{
    version     2.0;
    format      ascii;
    class       volVectorField;
    location    "0.5";
    object      U;
}
// * * * * * * * * * * * * * * * * * * * * * * * * * * * * * * * * * * * * * //

dimensions      [0 1 -1 0 0 0 0];

internalField   nonuniform List<vector> 
4000
(
(0.43589 0.0800088 0)
(0.533734 0.00632471 0)
(0.436897 -0.00111936 0)
(0.487621 0.00116741 0)
(0.456483 -0.000798519 0)
(0.476448 0.000488286 0)
(0.463961 -0.000318392 0)
(0.47191 0.000201662 0)
(0.466864 -0.000128165 0)
(0.470068 8.16622e-05 0)
(0.46803 -5.18647e-05 0)
(0.469325 3.29895e-05 0)
(0.468502 -2.09715e-05 0)
(0.469025 1.33328e-05 0)
(0.468693 -8.47585e-06 0)
(0.468904 5.38881e-06 0)
(0.46877 -3.42553e-06 0)
(0.468855 2.17794e-06 0)
(0.468801 -1.38445e-06 0)
(0.468835 8.80227e-07 0)
(0.468813 -5.59534e-07 0)
(0.468827 3.55749e-07 0)
(0.468818 -2.26139e-07 0)
(0.468824 1.43778e-07 0)
(0.46882 -9.13952e-08 0)
(0.468823 5.81085e-08 0)
(0.468821 -3.69379e-08 0)
(0.468822 2.34849e-08 0)
(0.468822 -1.49286e-08 0)
(0.468822 9.49154e-09 0)
(0.468822 -6.03349e-09 0)
(0.468822 3.83606e-09 0)
(0.468822 -2.43847e-09 0)
(0.468822 1.55036e-09 0)
(0.468822 -9.85521e-10 0)
(0.468822 6.26589e-10 0)
(0.468822 -3.98303e-10 0)
(0.468822 2.53238e-10 0)
(0.468822 -1.60977e-10 0)
(0.468822 1.02347e-10 0)
(0.468822 -6.50595e-11 0)
(0.468822 4.1364e-11 0)
(0.468822 -2.62934e-11 0)
(0.468822 1.6718e-11 0)
(0.468822 -1.0626e-11 0)
(0.468822 6.75511e-12 0)
(0.468822 -4.29418e-12 0)
(0.468822 2.73118e-12 0)
(0.468822 -1.73649e-12 0)
(0.468822 1.10469e-12 0)
(0.468822 -6.99769e-13 0)
(0.468822 4.45975e-13 0)
(0.468822 -2.82611e-13 0)
(0.468822 1.7869e-13 0)
(0.468822 -1.14455e-13 0)
(0.468822 7.26873e-14 0)
(0.468822 -4.69707e-14 0)
(0.468822 2.77468e-14 0)
(0.468822 -1.8541e-14 0)
(0.468822 1.1909e-14 0)
(0.468822 -7.94335e-15 0)
(0.468822 5.91807e-15 0)
(0.468822 -3.60244e-15 0)
(0.468822 1.77219e-15 0)
(0.468822 -2.03961e-15 0)
(0.468822 2.84452e-16 0)
(0.468822 -8.92295e-16 0)
(0.468822 1.44779e-15 0)
(0.468822 6.88243e-16 0)
(0.468822 -1.36455e-15 0)
(0.468822 -1.62789e-15 0)
(0.468822 3.59421e-16 0)
(0.468822 2.78056e-16 0)
(0.468822 1.37363e-15 0)
(0.468822 -2.16308e-16 0)
(0.468822 -8.95011e-16 0)
(0.468822 -5.64817e-16 0)
(0.468822 -9.74016e-17 0)
(0.468822 3.36605e-16 0)
(0.468822 8.74458e-16 0)
(0.468822 -6.94432e-16 0)
(0.468822 -7.99225e-16 0)
(0.468822 -1.37888e-15 0)
(0.468822 8.56051e-17 0)
(0.468822 1.09806e-16 0)
(0.468822 6.1967e-16 0)
(0.468822 -1.16074e-15 0)
(0.468822 -1.86047e-15 0)
(0.468822 -1.31999e-15 0)
(0.468822 -7.85813e-16 0)
(0.468822 -2.3789e-15 0)
(0.468822 -4.60196e-15 0)
(0.468822 -4.57214e-15 0)
(0.468822 -3.18503e-15 0)
(0.468822 -2.88303e-15 0)
(0.468822 -2.20756e-15 0)
(0.468822 -3.71883e-15 0)
(0.468822 -4.29922e-15 0)
(0.468822 -6.30442e-15 0)
(0.468822 1.68452e-15 0)
(0.740683 0.157357 0)
(0.924546 0.0155539 0)
(0.772369 -0.000880132 0)
(0.856742 0.00218004 0)
(0.804512 -0.0016127 0)
(0.837973 0.000938107 0)
(0.817045 -0.000638876 0)
(0.830375 0.000401411 0)
(0.821915 -0.000255601 0)
(0.827287 0.000163343 0)
(0.823871 -0.000103619 0)
(0.826041 6.59614e-05 0)
(0.824662 -4.19345e-05 0)
(0.825539 2.66581e-05 0)
(0.824981 -1.69496e-05 0)
(0.825336 1.07755e-05 0)
(0.82511 -6.85015e-06 0)
(0.825254 4.35513e-06 0)
(0.825162 -2.76854e-06 0)
(0.82522 1.76015e-06 0)
(0.825184 -1.11893e-06 0)
(0.825207 7.11375e-07 0)
(0.825192 -4.52221e-07 0)
(0.825202 2.87506e-07 0)
(0.825196 -1.82768e-07 0)
(0.825199 1.16197e-07 0)
(0.825197 -7.38665e-08 0)
(0.825198 4.69618e-08 0)
(0.825197 -2.98535e-08 0)
(0.825198 1.89799e-08 0)
(0.825198 -1.20655e-08 0)
(0.825198 7.67081e-09 0)
(0.825198 -4.87632e-09 0)
(0.825198 3.1002e-09 0)
(0.825198 -1.97079e-09 0)
(0.825198 1.25297e-09 0)
(0.825198 -7.96505e-10 0)
(0.825198 5.06392e-10 0)
(0.825198 -3.21916e-10 0)
(0.825198 2.04663e-10 0)
(0.825198 -1.30104e-10 0)
(0.825198 8.27159e-11 0)
(0.825198 -5.25819e-11 0)
(0.825198 3.34301e-11 0)
(0.825198 -2.12504e-11 0)
(0.825198 1.35108e-11 0)
(0.825198 -8.58999e-12 0)
(0.825198 5.46395e-12 0)
(0.825198 -3.47176e-12 0)
(0.825198 2.20474e-12 0)
(0.825198 -1.40503e-12 0)
(0.825198 8.92645e-13 0)
(0.825198 -5.66522e-13 0)
(0.825198 3.59216e-13 0)
(0.825198 -2.25603e-13 0)
(0.825198 1.4756e-13 0)
(0.825198 -9.24462e-14 0)
(0.825198 5.73944e-14 0)
(0.825198 -3.70991e-14 0)
(0.825198 2.29915e-14 0)
(0.825198 -1.5268e-14 0)
(0.825198 1.13206e-14 0)
(0.825198 -7.19292e-15 0)
(0.825198 2.48401e-15 0)
(0.825198 9.04115e-16 0)
(0.825198 9.0807e-16 0)
(0.825198 -2.72578e-15 0)
(0.825198 1.90304e-15 0)
(0.825198 2.51416e-15 0)
(0.825198 -5.43666e-16 0)
(0.825198 -4.72168e-16 0)
(0.825198 2.08864e-17 0)
(0.825198 -7.17437e-16 0)
(0.825198 4.82062e-16 0)
(0.825198 1.74848e-15 0)
(0.825198 2.63708e-15 0)
(0.825198 1.49045e-15 0)
(0.825198 1.13915e-15 0)
(0.825198 3.3147e-15 0)
(0.825198 5.7758e-15 0)
(0.825198 5.45596e-15 0)
(0.825198 6.63038e-15 0)
(0.825198 3.76852e-15 0)
(0.825198 6.91487e-15 0)
(0.825198 1.1782e-14 0)
(0.825198 1.55538e-14 0)
(0.825198 1.67073e-14 0)
(0.825198 1.9441e-14 0)
(0.825198 2.23411e-14 0)
(0.825198 2.5172e-14 0)
(0.825198 3.17722e-14 0)
(0.825198 3.42727e-14 0)
(0.825198 3.52717e-14 0)
(0.825198 4.4747e-14 0)
(0.825198 5.27892e-14 0)
(0.825198 5.5141e-14 0)
(0.825198 6.04673e-14 0)
(0.825198 5.90432e-14 0)
(0.825198 5.78156e-14 0)
(0.825198 4.36416e-14 0)
(0.849673 0.160642 0)
(1.07046 0.0209011 0)
(0.902483 0.00144769 0)
(0.997734 0.00202318 0)
(0.938385 -0.0017078 0)
(0.976386 0.000908106 0)
(0.9526 -0.000669724 0)
(0.967751 0.000414811 0)
(0.958135 -0.000265027 0)
(0.964241 0.000170261 0)
(0.960358 -0.000107778 0)
(0.962826 6.87075e-05 0)
(0.961257 -4.36843e-05 0)
(0.962255 2.77671e-05 0)
(0.961621 -1.76592e-05 0)
(0.962024 1.12255e-05 0)
(0.961767 -7.13684e-06 0)
(0.96193 4.53717e-06 0)
(0.961827 -2.88444e-06 0)
(0.961893 1.83373e-06 0)
(0.961851 -1.16577e-06 0)
(0.961877 7.41112e-07 0)
(0.96186 -4.71154e-07 0)
(0.961871 2.99525e-07 0)
(0.961864 -1.90419e-07 0)
(0.961869 1.21055e-07 0)
(0.961866 -7.69591e-08 0)
(0.961868 4.89249e-08 0)
(0.961867 -3.11034e-08 0)
(0.961867 1.97733e-08 0)
(0.961867 -1.25706e-08 0)
(0.961867 7.99149e-09 0)
(0.961867 -5.08047e-09 0)
(0.961867 3.22981e-09 0)
(0.961867 -2.05329e-09 0)
(0.961867 1.30535e-09 0)
(0.961867 -8.29848e-10 0)
(0.961867 5.27562e-10 0)
(0.961867 -3.35391e-10 0)
(0.961867 2.13223e-10 0)
(0.961867 -1.35552e-10 0)
(0.961867 8.61725e-11 0)
(0.961867 -5.47834e-11 0)
(0.961867 3.48276e-11 0)
(0.961867 -2.21402e-11 0)
(0.961867 1.40778e-11 0)
(0.961867 -8.95003e-12 0)
(0.961867 5.69424e-12 0)
(0.961867 -3.61898e-12 0)
(0.961867 2.29685e-12 0)
(0.961867 -1.46525e-12 0)
(0.961867 9.30113e-13 0)
(0.961867 -5.90597e-13 0)
(0.961867 3.73413e-13 0)
(0.961867 -2.3343e-13 0)
(0.961867 1.53649e-13 0)
(0.961867 -9.82694e-14 0)
(0.961867 6.21291e-14 0)
(0.961867 -3.69968e-14 0)
(0.961867 2.43456e-14 0)
(0.961867 -1.44672e-14 0)
(0.961867 1.17605e-14 0)
(0.961867 -7.93811e-15 0)
(0.961867 2.82014e-15 0)
(0.961867 2.2874e-15 0)
(0.961867 9.71874e-16 0)
(0.961867 -4.0868e-15 0)
(0.961867 3.38161e-15 0)
(0.961867 4.59323e-15 0)
(0.961867 2.01893e-15 0)
(0.961867 9.05757e-16 0)
(0.961867 -2.72789e-15 0)
(0.961867 -7.55307e-16 0)
(0.961867 7.92045e-16 0)
(0.961867 5.73156e-15 0)
(0.961867 5.94398e-15 0)
(0.961867 4.32592e-15 0)
(0.961867 7.32756e-15 0)
(0.961867 1.04268e-14 0)
(0.961867 1.38212e-14 0)
(0.961867 1.55914e-14 0)
(0.961867 2.04342e-14 0)
(0.961867 1.72319e-14 0)
(0.961867 2.22752e-14 0)
(0.961867 3.27284e-14 0)
(0.961867 4.26866e-14 0)
(0.961867 5.59398e-14 0)
(0.961867 6.57797e-14 0)
(0.961867 7.13948e-14 0)
(0.961867 8.22474e-14 0)
(0.961867 1.04614e-13 0)
(0.961867 1.18084e-13 0)
(0.961867 1.18367e-13 0)
(0.961867 1.46942e-13 0)
(0.961867 1.70422e-13 0)
(0.961867 1.74737e-13 0)
(0.961867 1.97543e-13 0)
(0.961867 1.96848e-13 0)
(0.961867 1.9181e-13 0)
(0.961867 1.21042e-13 0)
(0.886048 0.158684 0)
(1.12239 0.0243919 0)
(0.953055 0.00342985 0)
(1.05166 0.00183861 0)
(0.989872 -0.00173845 0)
(1.0294 0.000844217 0)
(1.00463 -0.000676123 0)
(1.02041 0.000412665 0)
(1.01039 -0.000264589 0)
(1.01675 0.000170866 0)
(1.01271 -0.000107925 0)
(1.01528 6.89043e-05 0)
(1.01364 -4.38113e-05 0)
(1.01468 2.78455e-05 0)
(1.01402 -1.7713e-05 0)
(1.01444 1.12588e-05 0)
(1.01418 -7.15847e-06 0)
(1.01435 4.55082e-06 0)
(1.01424 -2.8932e-06 0)
(1.01431 1.83925e-06 0)
(1.01426 -1.16932e-06 0)
(1.01429 7.43343e-07 0)
(1.01427 -4.72588e-07 0)
(1.01428 3.00427e-07 0)
(1.01428 -1.90999e-07 0)
(1.01428 1.21419e-07 0)
(1.01428 -7.71933e-08 0)
(1.01428 4.90723e-08 0)
(1.01428 -3.11981e-08 0)
(1.01428 1.98328e-08 0)
(1.01428 -1.26088e-08 0)
(1.01428 8.01557e-09 0)
(1.01428 -5.09591e-09 0)
(1.01428 3.23955e-09 0)
(1.01428 -2.05953e-09 0)
(1.01428 1.30928e-09 0)
(1.01428 -8.32372e-10 0)
(1.01428 5.29151e-10 0)
(1.01428 -3.36409e-10 0)
(1.01428 2.13867e-10 0)
(1.01428 -1.3596e-10 0)
(1.01428 8.64324e-11 0)
(1.01428 -5.49483e-11 0)
(1.01428 3.49326e-11 0)
(1.01428 -2.22052e-11 0)
(1.01428 1.4121e-11 0)
(1.01428 -8.97714e-12 0)
(1.01428 5.71087e-12 0)
(1.01428 -3.63152e-12 0)
(1.01428 2.30505e-12 0)
(1.01428 -1.46557e-12 0)
(1.01428 9.32216e-13 0)
(1.01428 -5.9053e-13 0)
(1.01428 3.73751e-13 0)
(1.01428 -2.34379e-13 0)
(1.01428 1.54009e-13 0)
(1.01428 -9.95269e-14 0)
(1.01428 6.26456e-14 0)
(1.01428 -3.35333e-14 0)
(1.01428 2.60388e-14 0)
(1.01428 -1.59243e-14 0)
(1.01428 1.08998e-14 0)
(1.01428 -6.66988e-15 0)
(1.01428 1.94454e-15 0)
(1.01428 6.36954e-16 0)
(1.01428 2.60555e-15 0)
(1.01428 -4.03522e-15 0)
(1.01428 2.44748e-15 0)
(1.01428 3.64815e-15 0)
(1.01428 2.84345e-15 0)
(1.01428 1.18182e-15 0)
(1.01428 -2.23578e-15 0)
(1.01428 -1.70599e-15 0)
(1.01428 4.1401e-15 0)
(1.01428 6.50334e-15 0)
(1.01428 6.93018e-15 0)
(1.01428 7.37635e-15 0)
(1.01428 1.42433e-14 0)
(1.01428 1.84975e-14 0)
(1.01428 2.32728e-14 0)
(1.01428 2.54463e-14 0)
(1.01428 3.42224e-14 0)
(1.01428 3.30298e-14 0)
(1.01428 3.8761e-14 0)
(1.01428 5.07868e-14 0)
(1.01428 6.92511e-14 0)
(1.01428 9.61368e-14 0)
(1.01428 1.16359e-13 0)
(1.01428 1.2407e-13 0)
(1.01428 1.39325e-13 0)
(1.01428 1.78727e-13 0)
(1.01428 2.06027e-13 0)
(1.01428 2.06906e-13 0)
(1.01428 2.53207e-13 0)
(1.01428 2.93094e-13 0)
(1.01428 3.0132e-13 0)
(1.01428 3.41757e-13 0)
(1.01428 3.43638e-13 0)
(1.01428 3.31562e-13 0)
(1.01428 2.01467e-13 0)
(0.897091 0.146914 0)
(1.14008 0.0262193 0)
(0.9729 0.00517209 0)
(1.07233 0.00156546 0)
(1.0097 -0.00167568 0)
(1.04972 0.000728246 0)
(1.02459 -0.000646473 0)
(1.0406 0.000387653 0)
(1.03043 -0.00024964 0)
(1.03689 0.000162201 0)
(1.03278 -0.000102185 0)
(1.03539 6.53572e-05 0)
(1.03373 -4.15569e-05 0)
(1.03479 2.64105e-05 0)
(1.03412 -1.68043e-05 0)
(1.03454 1.06804e-05 0)
(1.03427 -6.79113e-06 0)
(1.03445 4.31725e-06 0)
(1.03434 -2.74476e-06 0)
(1.03441 1.74485e-06 0)
(1.03436 -1.10933e-06 0)
(1.03439 7.05193e-07 0)
(1.03437 -4.48345e-07 0)
(1.03438 2.85008e-07 0)
(1.03438 -1.81201e-07 0)
(1.03438 1.15188e-07 0)
(1.03438 -7.32333e-08 0)
(1.03438 4.65538e-08 0)
(1.03438 -2.95976e-08 0)
(1.03438 1.8815e-08 0)
(1.03438 -1.1962e-08 0)
(1.03438 7.60422e-09 0)
(1.03438 -4.83448e-09 0)
(1.03438 3.07332e-09 0)
(1.03438 -1.95386e-09 0)
(1.03438 1.2421e-09 0)
(1.03438 -7.89663e-10 0)
(1.03438 5.01995e-10 0)
(1.03438 -3.1915e-10 0)
(1.03438 2.02891e-10 0)
(1.03438 -1.28983e-10 0)
(1.03438 8.20021e-11 0)
(1.03438 -5.21284e-11 0)
(1.03438 3.31418e-11 0)
(1.03438 -2.10655e-11 0)
(1.03438 1.33998e-11 0)
(1.03438 -8.51526e-12 0)
(1.03438 5.41838e-12 0)
(1.03438 -3.4438e-12 0)
(1.03438 2.18702e-12 0)
(1.03438 -1.38953e-12 0)
(1.03438 8.82912e-13 0)
(1.03438 -5.62182e-13 0)
(1.03438 3.56732e-13 0)
(1.03438 -2.21889e-13 0)
(1.03438 1.48113e-13 0)
(1.03438 -9.09358e-14 0)
(1.03438 5.85688e-14 0)
(1.03438 -3.16714e-14 0)
(1.03438 2.58059e-14 0)
(1.03438 -1.65286e-14 0)
(1.03438 1.2767e-14 0)
(1.03438 -6.02546e-15 0)
(1.03438 2.45862e-15 0)
(1.03438 4.77901e-16 0)
(1.03438 3.25349e-15 0)
(1.03438 -4.3416e-15 0)
(1.03438 1.18204e-15 0)
(1.03438 3.11785e-15 0)
(1.03438 4.89727e-15 0)
(1.03438 1.76892e-15 0)
(1.03438 -1.1196e-15 0)
(1.03438 -2.65724e-15 0)
(1.03438 6.74656e-15 0)
(1.03438 7.49243e-15 0)
(1.03438 1.12858e-14 0)
(1.03438 1.38002e-14 0)
(1.03438 2.11895e-14 0)
(1.03438 2.46916e-14 0)
(1.03438 3.41042e-14 0)
(1.03438 3.90803e-14 0)
(1.03438 4.88552e-14 0)
(1.03438 4.92955e-14 0)
(1.03438 5.53831e-14 0)
(1.03438 6.84337e-14 0)
(1.03438 9.27316e-14 0)
(1.03438 1.36386e-13 0)
(1.03438 1.69071e-13 0)
(1.03438 1.79689e-13 0)
(1.03438 1.95804e-13 0)
(1.03438 2.51788e-13 0)
(1.03438 2.98201e-13 0)
(1.03438 3.00268e-13 0)
(1.03438 3.6317e-13 0)
(1.03438 4.20054e-13 0)
(1.03438 4.28603e-13 0)
(1.03438 4.84482e-13 0)
(1.03438 4.93079e-13 0)
(1.03438 4.80811e-13 0)
(1.03438 2.84867e-13 0)
(0.898888 0.135321 0)
(1.14477 0.0272247 0)
(0.980814 0.00650738 0)
(1.08028 0.00134435 0)
(1.01735 -0.0016033 0)
(1.05752 0.000619522 0)
(1.03224 -0.000614778 0)
(1.04834 0.000362008 0)
(1.03812 -0.000234189 0)
(1.04461 0.000153116 0)
(1.04048 -9.6202e-05 0)
(1.04311 6.16456e-05 0)
(1.04144 -3.9197e-05 0)
(1.0425 2.4909e-05 0)
(1.04183 -1.58528e-05 0)
(1.04225 1.0075e-05 0)
(1.04198 -6.40648e-06 0)
(1.04215 4.07273e-06 0)
(1.04204 -2.58932e-06 0)
(1.04211 1.64603e-06 0)
(1.04207 -1.04652e-06 0)
(1.0421 6.65255e-07 0)
(1.04208 -4.22957e-07 0)
(1.04209 2.68867e-07 0)
(1.04208 -1.7094e-07 0)
(1.04209 1.08664e-07 0)
(1.04209 -6.90865e-08 0)
(1.04209 4.39173e-08 0)
(1.04209 -2.79216e-08 0)
(1.04209 1.77495e-08 0)
(1.04209 -1.12846e-08 0)
(1.04209 7.17359e-09 0)
(1.04209 -4.5607e-09 0)
(1.04209 2.89929e-09 0)
(1.04209 -1.8432e-09 0)
(1.04209 1.17176e-09 0)
(1.04209 -7.44939e-10 0)
(1.04209 4.7357e-10 0)
(1.04209 -3.01076e-10 0)
(1.04209 1.91402e-10 0)
(1.04209 -1.21677e-10 0)
(1.04209 7.73607e-11 0)
(1.04209 -4.9174e-11 0)
(1.04209 3.1265e-11 0)
(1.04209 -1.98721e-11 0)
(1.04209 1.26415e-11 0)
(1.04209 -8.03539e-12 0)
(1.04209 5.11379e-12 0)
(1.04209 -3.24968e-12 0)
(1.04209 2.06461e-12 0)
(1.04209 -1.30802e-12 0)
(1.04209 8.32918e-13 0)
(1.04209 -5.32491e-13 0)
(1.04209 3.38165e-13 0)
(1.04209 -2.10892e-13 0)
(1.04209 1.39043e-13 0)
(1.04209 -8.46726e-14 0)
(1.04209 5.75674e-14 0)
(1.04209 -3.07788e-14 0)
(1.04209 2.21774e-14 0)
(1.04209 -1.48719e-14 0)
(1.04209 1.45233e-14 0)
(1.04209 -6.72045e-15 0)
(1.04209 3.51801e-15 0)
(1.04209 -9.21697e-16 0)
(1.04209 3.73119e-15 0)
(1.04209 -3.3087e-15 0)
(1.04209 1.53242e-15 0)
(1.04209 3.27704e-15 0)
(1.04209 2.14946e-15 0)
(1.04209 1.71896e-15 0)
(1.04209 -1.75753e-15 0)
(1.04209 -1.30171e-15 0)
(1.04209 8.40529e-15 0)
(1.04209 9.24717e-15 0)
(1.04209 1.46753e-14 0)
(1.04209 1.72832e-14 0)
(1.04209 2.91626e-14 0)
(1.04209 2.83712e-14 0)
(1.04209 4.35458e-14 0)
(1.04209 4.96734e-14 0)
(1.04209 6.31881e-14 0)
(1.04209 6.80543e-14 0)
(1.04209 7.1682e-14 0)
(1.04209 8.24567e-14 0)
(1.04209 1.12052e-13 0)
(1.04209 1.73167e-13 0)
(1.04209 2.23125e-13 0)
(1.04209 2.35246e-13 0)
(1.04209 2.51377e-13 0)
(1.04209 3.1874e-13 0)
(1.04209 3.81718e-13 0)
(1.04209 3.90269e-13 0)
(1.04209 4.65073e-13 0)
(1.04209 5.40462e-13 0)
(1.04209 5.5456e-13 0)
(1.04209 6.13518e-13 0)
(1.04209 6.38387e-13 0)
(1.04209 6.29285e-13 0)
(1.04209 3.64211e-13 0)
(0.897648 0.123037 0)
(1.14489 0.0274657 0)
(0.984095 0.00748124 0)
(1.08337 0.00115017 0)
(1.02033 -0.00151465 0)
(1.06053 0.000513932 0)
(1.03517 -0.000578035 0)
(1.05131 0.000333924 0)
(1.04106 -0.000217079 0)
(1.04757 0.000142858 0)
(1.04343 -8.95022e-05 0)
(1.04607 5.74661e-05 0)
(1.04439 -3.65392e-05 0)
(1.04546 2.32185e-05 0)
(1.04478 -1.47806e-05 0)
(1.04521 9.39303e-06 0)
(1.04494 -5.97307e-06 0)
(1.04511 3.79723e-06 0)
(1.045 -2.41417e-06 0)
(1.04507 1.53469e-06 0)
(1.04503 -9.75734e-07 0)
(1.04505 6.20256e-07 0)
(1.04504 -3.9435e-07 0)
(1.04505 2.50681e-07 0)
(1.04504 -1.59379e-07 0)
(1.04505 1.01314e-07 0)
(1.04504 -6.44138e-08 0)
(1.04504 4.09467e-08 0)
(1.04504 -2.60331e-08 0)
(1.04504 1.65489e-08 0)
(1.04504 -1.05214e-08 0)
(1.04504 6.68839e-09 0)
(1.04504 -4.25221e-09 0)
(1.04504 2.7032e-09 0)
(1.04504 -1.71851e-09 0)
(1.04504 1.09252e-09 0)
(1.04504 -6.94554e-10 0)
(1.04504 4.41544e-10 0)
(1.04504 -2.8071e-10 0)
(1.04504 1.78459e-10 0)
(1.04504 -1.13442e-10 0)
(1.04504 7.21288e-11 0)
(1.04504 -4.58481e-11 0)
(1.04504 2.91489e-11 0)
(1.04504 -1.85286e-11 0)
(1.04504 1.17843e-11 0)
(1.04504 -7.49402e-12 0)
(1.04504 4.76637e-12 0)
(1.04504 -3.02981e-12 0)
(1.04504 1.92461e-12 0)
(1.04504 -1.2202e-12 0)
(1.04504 7.76603e-13 0)
(1.04504 -4.95959e-13 0)
(1.04504 3.15488e-13 0)
(1.04504 -1.98597e-13 0)
(1.04504 1.31912e-13 0)
(1.04504 -7.6681e-14 0)
(1.04504 5.36163e-14 0)
(1.04504 -2.93936e-14 0)
(1.04504 1.94056e-14 0)
(1.04504 -1.3682e-14 0)
(1.04504 1.53761e-14 0)
(1.04504 -5.19931e-15 0)
(1.04504 2.13562e-15 0)
(1.04504 1.73351e-15 0)
(1.04504 4.4529e-15 0)
(1.04504 -2.56998e-15 0)
(1.04504 -7.94403e-16 0)
(1.04504 1.62893e-15 0)
(1.04504 -1.15619e-16 0)
(1.04504 4.36256e-15 0)
(1.04504 -3.33071e-16 0)
(1.04504 -1.2497e-16 0)
(1.04504 7.81532e-15 0)
(1.04504 9.98987e-15 0)
(1.04504 1.74515e-14 0)
(1.04504 1.97081e-14 0)
(1.04504 3.60553e-14 0)
(1.04504 3.42749e-14 0)
(1.04504 5.15456e-14 0)
(1.04504 6.13489e-14 0)
(1.04504 7.95589e-14 0)
(1.04504 8.4723e-14 0)
(1.04504 8.66084e-14 0)
(1.04504 9.74957e-14 0)
(1.04504 1.32247e-13 0)
(1.04504 2.05401e-13 0)
(1.04504 2.73315e-13 0)
(1.04504 2.88863e-13 0)
(1.04504 3.06288e-13 0)
(1.04504 3.81439e-13 0)
(1.04504 4.58642e-13 0)
(1.04504 4.80121e-13 0)
(1.04504 5.57865e-13 0)
(1.04504 6.47924e-13 0)
(1.04504 6.77582e-13 0)
(1.04504 7.42084e-13 0)
(1.04504 7.73148e-13 0)
(1.04504 7.73544e-13 0)
(1.04504 4.45266e-13 0)
(0.895472 0.111422 0)
(1.14342 0.0271856 0)
(0.985544 0.00812414 0)
(1.0846 0.000994043 0)
(1.02152 -0.00142077 0)
(1.06169 0.000419579 0)
(1.03629 -0.000540549 0)
(1.05246 0.000306343 0)
(1.04219 -0.00020014 0)
(1.04871 0.000132572 0)
(1.04457 -8.28208e-05 0)
(1.0472 5.32827e-05 0)
(1.04553 -3.38788e-05 0)
(1.04659 2.15266e-05 0)
(1.04591 -1.3707e-05 0)
(1.04634 8.71022e-06 0)
(1.04607 -5.53909e-06 0)
(1.04624 3.52138e-06 0)
(1.04613 -2.23879e-06 0)
(1.0462 1.42321e-06 0)
(1.04616 -9.04856e-07 0)
(1.04619 5.75199e-07 0)
(1.04617 -3.65705e-07 0)
(1.04618 2.32471e-07 0)
(1.04617 -1.47802e-07 0)
(1.04618 9.39546e-08 0)
(1.04618 -5.97348e-08 0)
(1.04618 3.79724e-08 0)
(1.04618 -2.41421e-08 0)
(1.04618 1.53468e-08 0)
(1.04618 -9.75709e-09 0)
(1.04618 6.20256e-09 0)
(1.04618 -3.94331e-09 0)
(1.04618 2.50686e-09 0)
(1.04618 -1.59366e-09 0)
(1.04618 1.01316e-09 0)
(1.04618 -6.44093e-10 0)
(1.04618 4.09473e-10 0)
(1.04618 -2.60315e-10 0)
(1.04618 1.655e-10 0)
(1.04618 -1.05201e-10 0)
(1.04618 6.68886e-11 0)
(1.04618 -4.25174e-11 0)
(1.04618 2.70339e-11 0)
(1.04618 -1.71831e-11 0)
(1.04618 1.09293e-11 0)
(1.04618 -6.94585e-12 0)
(1.04618 4.41733e-12 0)
(1.04618 -2.80984e-12 0)
(1.04618 1.78424e-12 0)
(1.04618 -1.13229e-12 0)
(1.04618 7.18899e-13 0)
(1.04618 -4.58961e-13 0)
(1.04618 2.93706e-13 0)
(1.04618 -1.81283e-13 0)
(1.04618 1.23466e-13 0)
(1.04618 -7.10154e-14 0)
(1.04618 4.80148e-14 0)
(1.04618 -2.81315e-14 0)
(1.04618 1.77999e-14 0)
(1.04618 -1.35376e-14 0)
(1.04618 1.64006e-14 0)
(1.04618 -5.33429e-15 0)
(1.04618 4.1453e-15 0)
(1.04618 1.46749e-15 0)
(1.04618 4.12968e-15 0)
(1.04618 -3.20594e-15 0)
(1.04618 -1.37503e-15 0)
(1.04618 3.38837e-15 0)
(1.04618 -6.37404e-16 0)
(1.04618 4.90525e-15 0)
(1.04618 2.18183e-15 0)
(1.04618 -7.6765e-16 0)
(1.04618 9.33327e-15 0)
(1.04618 1.43929e-14 0)
(1.04618 2.12944e-14 0)
(1.04618 2.15777e-14 0)
(1.04618 4.10535e-14 0)
(1.04618 4.21482e-14 0)
(1.04618 5.82348e-14 0)
(1.04618 7.3194e-14 0)
(1.04618 9.54025e-14 0)
(1.04618 9.78915e-14 0)
(1.04618 1.02068e-13 0)
(1.04618 1.15243e-13 0)
(1.04618 1.51805e-13 0)
(1.04618 2.34652e-13 0)
(1.04618 3.14949e-13 0)
(1.04618 3.40699e-13 0)
(1.04618 3.61534e-13 0)
(1.04618 4.37365e-13 0)
(1.04618 5.30003e-13 0)
(1.04618 5.63899e-13 0)
(1.04618 6.48406e-13 0)
(1.04618 7.44035e-13 0)
(1.04618 7.88984e-13 0)
(1.04618 8.68603e-13 0)
(1.04618 8.93823e-13 0)
(1.04618 9.03516e-13 0)
(1.04618 5.2203e-13 0)
(0.893163 0.100266 0)
(1.14153 0.0264334 0)
(0.986256 0.00846961 0)
(1.0851 0.000863896 0)
(1.02203 -0.00132099 0)
(1.06215 0.000335643 0)
(1.03672 -0.000501703 0)
(1.0529 0.000278946 0)
(1.04262 -0.000183162 0)
(1.04915 0.000122113 0)
(1.045 -7.60692e-05 0)
(1.04764 4.90373e-05 0)
(1.04596 -3.11789e-05 0)
(1.04703 1.98099e-05 0)
(1.04635 -1.2617e-05 0)
(1.04678 8.0171e-06 0)
(1.04651 -5.09852e-06 0)
(1.04668 3.24133e-06 0)
(1.04657 -2.06074e-06 0)
(1.04664 1.31003e-06 0)
(1.04659 -8.32899e-07 0)
(1.04662 5.29457e-07 0)
(1.0466 -3.36623e-07 0)
(1.04662 2.13984e-07 0)
(1.04661 -1.36048e-07 0)
(1.04661 8.6483e-08 0)
(1.04661 -5.49845e-08 0)
(1.04661 3.49527e-08 0)
(1.04661 -2.22222e-08 0)
(1.04661 1.41264e-08 0)
(1.04661 -8.98116e-09 0)
(1.04661 5.70934e-09 0)
(1.04661 -3.6297e-09 0)
(1.04661 2.30752e-09 0)
(1.04661 -1.46691e-09 0)
(1.04661 9.326e-10 0)
(1.04661 -5.92865e-10 0)
(1.04661 3.76914e-10 0)
(1.04661 -2.39608e-10 0)
(1.04661 1.52345e-10 0)
(1.04661 -9.6837e-11 0)
(1.04661 6.15687e-11 0)
(1.04661 -3.91314e-11 0)
(1.04661 2.48843e-11 0)
(1.04661 -1.58152e-11 0)
(1.04661 1.00608e-11 0)
(1.04661 -6.39439e-12 0)
(1.04661 4.06732e-12 0)
(1.04661 -2.58688e-12 0)
(1.04661 1.64106e-12 0)
(1.04661 -1.03964e-12 0)
(1.04661 6.6136e-13 0)
(1.04661 -4.22094e-13 0)
(1.04661 2.69529e-13 0)
(1.04661 -1.63023e-13 0)
(1.04661 1.11655e-13 0)
(1.04661 -6.87328e-14 0)
(1.04661 4.27875e-14 0)
(1.04661 -2.48293e-14 0)
(1.04661 1.40189e-14 0)
(1.04661 -1.37923e-14 0)
(1.04661 1.27139e-14 0)
(1.04661 -7.59459e-15 0)
(1.04661 2.41993e-15 0)
(1.04661 1.97711e-15 0)
(1.04661 2.54049e-15 0)
(1.04661 -5.08544e-15 0)
(1.04661 7.38919e-16 0)
(1.04661 7.49704e-16 0)
(1.04661 -8.8186e-16 0)
(1.04661 5.55642e-15 0)
(1.04661 2.3009e-15 0)
(1.04661 -3.48886e-15 0)
(1.04661 7.84572e-15 0)
(1.04661 1.53306e-14 0)
(1.04661 2.3852e-14 0)
(1.04661 2.33539e-14 0)
(1.04661 4.55333e-14 0)
(1.04661 4.71838e-14 0)
(1.04661 6.49359e-14 0)
(1.04661 7.94037e-14 0)
(1.04661 1.11008e-13 0)
(1.04661 1.11385e-13 0)
(1.04661 1.16008e-13 0)
(1.04661 1.31304e-13 0)
(1.04661 1.69222e-13 0)
(1.04661 2.5904e-13 0)
(1.04661 3.527e-13 0)
(1.04661 3.89936e-13 0)
(1.04661 4.12405e-13 0)
(1.04661 4.90492e-13 0)
(1.04661 5.92453e-13 0)
(1.04661 6.40228e-13 0)
(1.04661 7.34805e-13 0)
(1.04661 8.30991e-13 0)
(1.04661 8.93417e-13 0)
(1.04661 9.87003e-13 0)
(1.04661 1.00457e-12 0)
(1.04661 1.01857e-12 0)
(1.04661 5.91119e-13 0)
(0.890974 0.089704 0)
(1.13963 0.0252962 0)
(0.986653 0.00855202 0)
(1.08533 0.000755366 0)
(1.02227 -0.00121724 0)
(1.06234 0.000263014 0)
(1.03688 -0.000462024 0)
(1.05307 0.000252141 0)
(1.04278 -0.00016639 0)
(1.04932 0.000111632 0)
(1.04516 -6.93456e-05 0)
(1.04781 4.4791e-05 0)
(1.04613 -2.84784e-05 0)
(1.04719 1.80931e-05 0)
(1.04651 -1.15263e-05 0)
(1.04695 7.32365e-06 0)
(1.04667 -4.65769e-06 0)
(1.04685 2.96112e-06 0)
(1.04674 -1.88258e-06 0)
(1.04681 1.19678e-06 0)
(1.04676 -7.60897e-07 0)
(1.04679 4.83687e-07 0)
(1.04677 -3.07523e-07 0)
(1.04678 1.95486e-07 0)
(1.04678 -1.24287e-07 0)
(1.04678 7.90069e-08 0)
(1.04678 -5.02313e-08 0)
(1.04678 3.19312e-08 0)
(1.04678 -2.03012e-08 0)
(1.04678 1.29052e-08 0)
(1.04678 -8.20474e-09 0)
(1.04678 5.21582e-09 0)
(1.04678 -3.3159e-09 0)
(1.04678 2.10807e-09 0)
(1.04678 -1.34008e-09 0)
(1.04678 8.51989e-10 0)
(1.04678 -5.41612e-10 0)
(1.04678 3.44335e-10 0)
(1.04678 -2.18889e-10 0)
(1.04678 1.39174e-10 0)
(1.04678 -8.84624e-11 0)
(1.04678 5.6248e-11 0)
(1.04678 -3.57466e-11 0)
(1.04678 2.27331e-11 0)
(1.04678 -1.44467e-11 0)
(1.04678 9.1902e-12 0)
(1.04678 -5.84076e-12 0)
(1.04678 3.71526e-12 0)
(1.04678 -2.36287e-12 0)
(1.04678 1.4994e-12 0)
(1.04678 -9.4746e-13 0)
(1.04678 6.02767e-13 0)
(1.04678 -3.87297e-13 0)
(1.04678 2.47166e-13 0)
(1.04678 -1.47561e-13 0)
(1.04678 9.97837e-14 0)
(1.04678 -6.42667e-14 0)
(1.04678 3.87826e-14 0)
(1.04678 -2.16875e-14 0)
(1.04678 9.69169e-15 0)
(1.04678 -1.21912e-14 0)
(1.04678 1.32643e-14 0)
(1.04678 -1.01217e-14 0)
(1.04678 1.30587e-15 0)
(1.04678 3.49344e-15 0)
(1.04678 -4.89022e-16 0)
(1.04678 -6.93059e-15 0)
(1.04678 1.14417e-15 0)
(1.04678 5.72916e-17 0)
(1.04678 6.08324e-16 0)
(1.04678 5.55422e-15 0)
(1.04678 1.89031e-15 0)
(1.04678 -3.42566e-15 0)
(1.04678 7.17264e-15 0)
(1.04678 1.48043e-14 0)
(1.04678 2.46375e-14 0)
(1.04678 2.78036e-14 0)
(1.04678 5.03485e-14 0)
(1.04678 5.26308e-14 0)
(1.04678 7.20057e-14 0)
(1.04678 8.63385e-14 0)
(1.04678 1.22885e-13 0)
(1.04678 1.22929e-13 0)
(1.04678 1.31838e-13 0)
(1.04678 1.491e-13 0)
(1.04678 1.85656e-13 0)
(1.04678 2.77297e-13 0)
(1.04678 3.80463e-13 0)
(1.04678 4.34382e-13 0)
(1.04678 4.64645e-13 0)
(1.04678 5.42434e-13 0)
(1.04678 6.44936e-13 0)
(1.04678 7.0441e-13 0)
(1.04678 8.16782e-13 0)
(1.04678 9.14076e-13 0)
(1.04678 9.83629e-13 0)
(1.04678 1.0917e-12 0)
(1.04678 1.10806e-12 0)
(1.04678 1.12314e-12 0)
(1.04678 6.52961e-13 0)
(0.88899 0.0796438 0)
(1.13786 0.0238201 0)
(0.986905 0.00840066 0)
(1.08544 0.000661699 0)
(1.0224 -0.00110991 0)
(1.06242 0.00020116 0)
(1.03694 -0.000421399 0)
(1.05314 0.00022588 0)
(1.04284 -0.00014979 0)
(1.04939 0.000101103 0)
(1.04522 -6.26358e-05 0)
(1.04787 4.05341e-05 0)
(1.04619 -2.57713e-05 0)
(1.04726 1.63723e-05 0)
(1.04658 -1.04325e-05 0)
(1.04701 6.62828e-06 0)
(1.04674 -4.2156e-06 0)
(1.04691 2.6801e-06 0)
(1.0468 -1.70391e-06 0)
(1.04687 1.08321e-06 0)
(1.04682 -6.88687e-07 0)
(1.04685 4.37785e-07 0)
(1.04684 -2.78339e-07 0)
(1.04685 1.76934e-07 0)
(1.04684 -1.12492e-07 0)
(1.04684 7.15092e-08 0)
(1.04684 -4.54643e-08 0)
(1.04684 2.89009e-08 0)
(1.04684 -1.83746e-08 0)
(1.04684 1.16806e-08 0)
(1.04684 -7.42608e-09 0)
(1.04684 4.72087e-09 0)
(1.04684 -3.00119e-09 0)
(1.04684 1.90803e-09 0)
(1.04684 -1.21289e-09 0)
(1.04684 7.71147e-10 0)
(1.04684 -4.90206e-10 0)
(1.04684 3.11661e-10 0)
(1.04684 -1.98114e-10 0)
(1.04684 1.25966e-10 0)
(1.04684 -8.00628e-11 0)
(1.04684 5.09094e-11 0)
(1.04684 -3.23537e-11 0)
(1.04684 2.05777e-11 0)
(1.04684 -1.30719e-11 0)
(1.04684 8.32155e-12 0)
(1.04684 -5.28646e-12 0)
(1.04684 3.36021e-12 0)
(1.04684 -2.1388e-12 0)
(1.04684 1.35823e-12 0)
(1.04684 -8.56717e-13 0)
(1.04684 5.44982e-13 0)
(1.04684 -3.50348e-13 0)
(1.04684 2.27049e-13 0)
(1.04684 -1.31264e-13 0)
(1.04684 8.94944e-14 0)
(1.04684 -5.79004e-14 0)
(1.04684 3.59839e-14 0)
(1.04684 -1.76932e-14 0)
(1.04684 6.07995e-15 0)
(1.04684 -1.15331e-14 0)
(1.04684 1.28528e-14 0)
(1.04684 -9.19856e-15 0)
(1.04684 3.82867e-15 0)
(1.04684 4.36768e-15 0)
(1.04684 -5.50977e-16 0)
(1.04684 -4.1619e-15 0)
(1.04684 -7.38616e-16 0)
(1.04684 2.77939e-15 0)
(1.04684 -2.29468e-16 0)
(1.04684 3.9036e-15 0)
(1.04684 1.48212e-15 0)
(1.04684 -9.44483e-16 0)
(1.04684 9.1726e-15 0)
(1.04684 1.62029e-14 0)
(1.04684 2.76007e-14 0)
(1.04684 3.07704e-14 0)
(1.04684 5.56388e-14 0)
(1.04684 5.87704e-14 0)
(1.04684 8.00437e-14 0)
(1.04684 9.26079e-14 0)
(1.04684 1.3267e-13 0)
(1.04684 1.34482e-13 0)
(1.04684 1.49094e-13 0)
(1.04684 1.66194e-13 0)
(1.04684 2.02173e-13 0)
(1.04684 2.90986e-13 0)
(1.04684 3.98864e-13 0)
(1.04684 4.71314e-13 0)
(1.04684 5.17326e-13 0)
(1.04684 5.91377e-13 0)
(1.04684 6.92431e-13 0)
(1.04684 7.56295e-13 0)
(1.04684 8.85555e-13 0)
(1.04684 9.9235e-13 0)
(1.04684 1.06181e-12 0)
(1.04684 1.1773e-12 0)
(1.04684 1.20175e-12 0)
(1.04684 1.22241e-12 0)
(1.04684 7.08033e-13 0)
(0.887227 0.0700556 0)
(1.13628 0.0220503 0)
(0.987083 0.00804392 0)
(1.0855 0.000578775 0)
(1.02249 -0.000999685 0)
(1.06247 0.000149667 0)
(1.03696 -0.000379902 0)
(1.05317 0.00020021 0)
(1.04286 -0.000133391 0)
(1.04941 9.05474e-05 0)
(1.04525 -5.59534e-05 0)
(1.0479 3.6275e-05 0)
(1.04621 -2.30629e-05 0)
(1.04728 1.46509e-05 0)
(1.0466 -9.33764e-06 0)
(1.04704 5.93238e-06 0)
(1.04676 -3.77314e-06 0)
(1.04693 2.39883e-06 0)
(1.04682 -1.52508e-06 0)
(1.04689 9.69529e-07 0)
(1.04685 -6.16413e-07 0)
(1.04688 3.91842e-07 0)
(1.04686 -2.49129e-07 0)
(1.04687 1.58366e-07 0)
(1.04686 -1.00687e-07 0)
(1.04687 6.40048e-08 0)
(1.04687 -4.06931e-08 0)
(1.04687 2.5868e-08 0)
(1.04687 -1.64462e-08 0)
(1.04687 1.04548e-08 0)
(1.04687 -6.64673e-09 0)
(1.04687 4.22548e-09 0)
(1.04687 -2.68621e-09 0)
(1.04687 1.70781e-09 0)
(1.04687 -1.08559e-09 0)
(1.04687 6.90228e-10 0)
(1.04687 -4.38754e-10 0)
(1.04687 2.78961e-10 0)
(1.04687 -1.7732e-10 0)
(1.04687 1.12749e-10 0)
(1.04687 -7.16566e-11 0)
(1.04687 4.55706e-11 0)
(1.04687 -2.89576e-11 0)
(1.04687 1.84176e-11 0)
(1.04687 -1.17009e-11 0)
(1.04687 7.45185e-12 0)
(1.04687 -4.73267e-12 0)
(1.04687 3.01001e-12 0)
(1.04687 -1.9118e-12 0)
(1.04687 1.21827e-12 0)
(1.04687 -7.6659e-13 0)
(1.04687 4.87795e-13 0)
(1.04687 -3.1325e-13 0)
(1.04687 2.0579e-13 0)
(1.04687 -1.1777e-13 0)
(1.04687 7.94642e-14 0)
(1.04687 -5.12639e-14 0)
(1.04687 3.46371e-14 0)
(1.04687 -1.39017e-14 0)
(1.04687 7.39915e-15 0)
(1.04687 -9.75056e-15 0)
(1.04687 9.20264e-15 0)
(1.04687 -8.07609e-15 0)
(1.04687 3.63854e-15 0)
(1.04687 2.46368e-15 0)
(1.04687 4.65563e-16 0)
(1.04687 -3.87635e-15 0)
(1.04687 -1.65164e-15 0)
(1.04687 1.70006e-15 0)
(1.04687 9.15893e-17 0)
(1.04687 2.73817e-15 0)
(1.04687 1.20642e-15 0)
(1.04687 -7.47365e-16 0)
(1.04687 9.44387e-15 0)
(1.04687 1.65897e-14 0)
(1.04687 2.8849e-14 0)
(1.04687 3.25302e-14 0)
(1.04687 5.89843e-14 0)
(1.04687 6.13882e-14 0)
(1.04687 8.68471e-14 0)
(1.04687 9.89874e-14 0)
(1.04687 1.40429e-13 0)
(1.04687 1.42511e-13 0)
(1.04687 1.64836e-13 0)
(1.04687 1.83692e-13 0)
(1.04687 2.17126e-13 0)
(1.04687 3.0209e-13 0)
(1.04687 4.08978e-13 0)
(1.04687 4.9765e-13 0)
(1.04687 5.62803e-13 0)
(1.04687 6.36893e-13 0)
(1.04687 7.36024e-13 0)
(1.04687 8.01706e-13 0)