/*--------------------------------*- C++ -*----------------------------------*\
| =========                 |                                                 |
| \\      /  F ield         | foam-extend: Open Source CFD                    |
|  \\    /   O peration     | Version:     5.0                                |
|   \\  /    A nd           | Web:         http://www.foam-extend.org         |
|    \\/     M anipulation  |                                                 |
\*---------------------------------------------------------------------------*/
FoamFile
{
    version     2.0;
    format      ascii;
    class       volVectorField;
    location    "0.075";
    object      currentDensity;
}
// * * * * * * * * * * * * * * * * * * * * * * * * * * * * * * * * * * * * * //

dimensions      [0 -2 0 0 0 1 0];

internalField   nonuniform List<vector> 
4000
(
(0 0 129.909)
(0 0 239.303)
(0 0 504.765)
(0 0 721.798)
(0 0 962.187)
(0 0 1157.31)
(0 0 1379.82)
(0 0 1685.22)
(0 0 2203.52)
(0 0 2826.68)
(0 0 3740.85)
(0 0 3975.71)
(0 0 3717.55)
(0 0 3636.58)
(0 0 5014.85)
(0 0 6293.44)
(0 0 7612.43)
(0 0 8454.78)
(0 0 9729.44)
(0 0 9906.12)
(0 0 11744.1)
(0 0 13658.2)
(0 0 14312.4)
(0 0 15234.4)
(0 0 15885.7)
(0 0 16266.2)
(0 0 17026.9)
(0 0 16848.2)
(0 0 16246.7)
(0 0 16231.8)
(0 0 17144.5)
(0 0 15996.2)
(0 0 13749.9)
(0 0 13650.1)
(0 0 12685.3)
(0 0 11898.1)
(0 0 11596.8)
(0 0 12060)
(0 0 11520.3)
(0 0 11616.6)
(0 0 10436.9)
(0 0 9896.7)
(0 0 10153.1)
(0 0 10165)
(0 0 11167.1)
(0 0 11659.2)
(0 0 10054.4)
(0 0 8888.45)
(0 0 6640.45)
(0 0 5569.24)
(0 0 3821.36)
(0 0 3322.84)
(0 0 3767.51)
(0 0 3674.47)
(0 0 3314.79)
(0 0 2799.99)
(0 0 3186.69)
(0 0 3083.05)
(0 0 2568.19)
(0 0 2622.92)
(0 0 2307.8)
(0 0 2385.71)
(0 0 2321.67)
(0 0 1980.79)
(0 0 1805.21)
(0 0 1419.03)
(0 0 1263.25)
(0 0 1119.7)
(0 0 878.049)
(0 0 663.505)
(0 0 605.179)
(0 0 409.444)
(0 0 359.774)
(0 0 261.47)
(0 0 203.825)
(0 0 231.279)
(0 0 130.462)
(0 0 215.471)
(0 0 66.5819)
(0 0 37.0256)
(0 0 -187.904)
(0 0 13.6897)
(0 0 -242.126)
(0 0 -56.1035)
(0 0 -174.574)
(0 0 -250.894)
(0 0 249.477)
(0 0 33.7703)
(0 0 -40.6463)
(0 0 552.365)
(0 0 284.244)
(0 0 517.591)
(0 0 29.8681)
(0 0 226.683)
(0 0 -183.146)
(0 0 -309.294)
(0 0 80.2146)
(0 0 166.522)
(0 0 83.4383)
(0 0 455.239)
(0 0 404.46)
(0 0 556.36)
(0 0 1054.66)
(0 0 1347.08)
(0 0 1861.16)
(0 0 2132.32)
(0 0 2555.61)
(0 0 2957.41)
(0 0 3526.5)
(0 0 3551.42)
(0 0 3857.13)
(0 0 3750.95)
(0 0 2880.15)
(0 0 3676.91)
(0 0 4236.13)
(0 0 6518.01)
(0 0 8077.16)
(0 0 8945)
(0 0 9494.39)
(0 0 11681.1)
(0 0 13319.6)
(0 0 15744)
(0 0 14924.2)
(0 0 15193.7)
(0 0 15249.7)
(0 0 14937.8)
(0 0 12942)
(0 0 12388.7)
(0 0 12923)
(0 0 13711.9)
(0 0 12976.9)
(0 0 11353.4)
(0 0 10278.2)
(0 0 11396.9)
(0 0 11092.9)
(0 0 11683.8)
(0 0 12153.7)
(0 0 11331.2)
(0 0 11807.4)
(0 0 11190.5)
(0 0 11290.6)
(0 0 10705.2)
(0 0 10689.4)
(0 0 11087.4)
(0 0 11559.4)
(0 0 12351.5)
(0 0 13062.1)
(0 0 11013.5)
(0 0 9465.11)
(0 0 7721.47)
(0 0 6928.85)
(0 0 5009.4)
(0 0 4822.45)
(0 0 3878.38)
(0 0 4253.41)
(0 0 3977.97)
(0 0 4474.55)
(0 0 4005.46)
(0 0 4589.16)
(0 0 4061.18)
(0 0 4435.23)
(0 0 3927.25)
(0 0 4202.28)
(0 0 3871.09)
(0 0 3234.5)
(0 0 3003.97)
(0 0 2191.53)
(0 0 2156.57)
(0 0 1514.95)
(0 0 1172.35)
(0 0 1114.2)
(0 0 684.961)
(0 0 527.634)
(0 0 474.143)
(0 0 286.093)
(0 0 593.049)
(0 0 407.663)
(0 0 667.316)
(0 0 299.702)
(0 0 554.122)
(0 0 -28.508)
(0 0 293.557)
(0 0 -326.209)
(0 0 -365.589)
(0 0 230.369)
(0 0 -52.5155)
(0 0 585.491)
(0 0 435.812)
(0 0 198.477)
(0 0 1190.28)
(0 0 1081.76)
(0 0 801.302)
(0 0 498.366)
(0 0 696.552)
(0 0 108.041)
(0 0 -163.79)
(0 0 321.871)
(0 0 40.2277)
(0 0 492.066)
(0 0 433.759)
(0 0 528.358)
(0 0 842.269)
(0 0 1418.08)
(0 0 1480.25)
(0 0 2069.74)
(0 0 2173.44)
(0 0 2509.28)
(0 0 2607.36)
(0 0 2643.34)
(0 0 2720.23)
(0 0 2164.91)
(0 0 1740.27)
(0 0 1671.88)
(0 0 2660.33)
(0 0 3290.02)
(0 0 5717.36)
(0 0 7207.56)
(0 0 8519.32)
(0 0 9753.07)
(0 0 11065.4)
(0 0 13881.8)
(0 0 14350.8)
(0 0 12430.2)
(0 0 12639.2)
(0 0 12068.1)
(0 0 11736.9)
(0 0 10813.5)
(0 0 11309.7)
(0 0 11313.1)
(0 0 11023.9)
(0 0 9552.58)
(0 0 8285.01)
(0 0 8464.43)
(0 0 9484.06)
(0 0 10269.2)
(0 0 9433.34)
(0 0 9479.83)
(0 0 10437.1)
(0 0 10448.1)
(0 0 10765.5)
(0 0 9854.62)
(0 0 9360.29)
(0 0 9828.96)
(0 0 9535.46)
(0 0 10346.5)
(0 0 10659)
(0 0 11969.3)
(0 0 10730.6)
(0 0 9513.86)
(0 0 8645.1)
(0 0 8046.9)
(0 0 6610.84)
(0 0 5741.88)
(0 0 4682.79)
(0 0 4256.73)
(0 0 4696.42)
(0 0 4843.61)
(0 0 4129.9)
(0 0 4742.47)
(0 0 4362.17)
(0 0 4831.26)
(0 0 4266.23)
(0 0 4412.11)
(0 0 3964.39)
(0 0 3927.99)
(0 0 3458.26)
(0 0 2478.83)
(0 0 2434.27)
(0 0 1731.11)
(0 0 1597.16)
(0 0 1047.13)
(0 0 719.085)
(0 0 756.863)
(0 0 651.087)
(0 0 588.851)
(0 0 472.835)
(0 0 1214.75)
(0 0 634.024)
(0 0 1213.49)
(0 0 621.151)
(0 0 855.301)
(0 0 825.17)
(0 0 28.3928)
(0 0 539.023)
(0 0 248.824)
(0 0 938.98)
(0 0 626.522)
(0 0 1434.02)
(0 0 1044.69)
(0 0 1831.85)
(0 0 1436.85)
(0 0 1979.07)
(0 0 2165.52)
(0 0 1063.29)
(0 0 983.002)
(0 0 1155.05)
(0 0 406.06)
(0 0 745.919)
(0 0 384.518)
(0 0 847.387)
(0 0 553.884)
(0 0 770.519)
(0 0 1403.88)
(0 0 1758.24)
(0 0 1787.85)
(0 0 2243.49)
(0 0 2197.71)
(0 0 2301.11)
(0 0 2270.09)
(0 0 2099.37)
(0 0 1900.52)
(0 0 1353.33)
(0 0 1733.82)
(0 0 2261.49)
(0 0 2870.02)
(0 0 5141.67)
(0 0 6976.91)
(0 0 8035.13)
(0 0 10217.4)
(0 0 12189)
(0 0 12666.4)
(0 0 12577)
(0 0 10655.6)
(0 0 10695.1)
(0 0 9973.61)
(0 0 9556)
(0 0 9383.19)
(0 0 10072.7)
(0 0 10999.2)
(0 0 9495.71)
(0 0 6753.06)
(0 0 5331.28)
(0 0 7238.55)
(0 0 7485.38)
(0 0 7791.98)
(0 0 7231.81)
(0 0 8117.48)
(0 0 8486.6)
(0 0 9230.26)
(0 0 9836.35)
(0 0 9875.13)
(0 0 9747.84)
(0 0 9094.67)
(0 0 9392.47)
(0 0 9609.08)
(0 0 10580.8)
(0 0 11208.6)
(0 0 10798.7)
(0 0 8278.1)
(0 0 7322.61)
(0 0 7025.66)
(0 0 5839.7)
(0 0 5513.36)
(0 0 4556.47)
(0 0 4711.25)
(0 0 4972.76)
(0 0 4293.06)
(0 0 3989.4)
(0 0 4513.5)
(0 0 4371.99)
(0 0 4869.21)
(0 0 4467.85)
(0 0 4192.6)
(0 0 4015.38)
(0 0 4099.38)
(0 0 3539.14)
(0 0 2730.02)
(0 0 2453.45)
(0 0 2064.33)
(0 0 1689.6)
(0 0 1212.18)
(0 0 984.747)
(0 0 894.628)
(0 0 677.836)
(0 0 993.161)
(0 0 855.073)
(0 0 1398.75)
(0 0 916.189)
(0 0 1498.9)
(0 0 872.467)
(0 0 1127.97)
(0 0 518.907)
(0 0 314.314)
(0 0 273.056)
(0 0 934.076)
(0 0 723.816)
(0 0 1450.05)
(0 0 1256.03)
(0 0 2028.51)
(0 0 1712.35)
(0 0 2350.99)
(0 0 1901.73)
(0 0 2496.2)
(0 0 1501.94)
(0 0 1764.14)
(0 0 1098.69)
(0 0 514.77)
(0 0 468.941)
(0 0 744.701)
(0 0 807.452)
(0 0 616.691)
(0 0 830.025)
(0 0 1178.97)
(0 0 1498.4)
(0 0 2016.57)
(0 0 1951.85)
(0 0 2192.51)
(0 0 1969.55)
(0 0 2043.17)
(0 0 1947.19)
(0 0 1574.39)
(0 0 830.996)
(0 0 1201.39)
(0 0 1400.32)
(0 0 3483.94)
(0 0 5376.24)
(0 0 6594.59)
(0 0 8498.63)
(0 0 10122.4)
(0 0 12140.3)
(0 0 12365.5)
(0 0 10622.6)
(0 0 8786.97)
(0 0 8773.31)
(0 0 8000.48)
(0 0 6568.33)
(0 0 7371.13)
(0 0 9168.31)
(0 0 8349.7)
(0 0 5783.49)
(0 0 3436.91)
(0 0 2931.69)
(0 0 4164.4)
(0 0 6072.54)
(0 0 4831.49)
(0 0 5286.43)
(0 0 5570.14)
(0 0 6616.93)
(0 0 7830.04)
(0 0 8308.85)
(0 0 8929.59)
(0 0 8577.44)
(0 0 8474.38)
(0 0 8345.79)
(0 0 9356.56)
(0 0 10613.2)
(0 0 11308.3)
(0 0 10838.6)
(0 0 8808.03)
(0 0 6659.91)
(0 0 5376.7)
(0 0 5918.08)
(0 0 5026.33)
(0 0 5017.61)
(0 0 4220.88)
(0 0 4541.69)
(0 0 4117.4)
(0 0 4431.45)
(0 0 4203.95)
(0 0 4323)
(0 0 4421.23)
(0 0 4202.87)
(0 0 4105.27)
(0 0 4264.12)
(0 0 3934.83)
(0 0 3531.55)
(0 0 2990.19)
(0 0 2560.25)
(0 0 2195.09)
(0 0 1796.42)
(0 0 1490.94)
(0 0 1099.53)
(0 0 917.528)
(0 0 985.972)
(0 0 962.261)
(0 0 1421.67)
(0 0 1169.41)
(0 0 1535.9)
(0 0 1128.63)
(0 0 1378.84)
(0 0 758.118)
(0 0 972.973)
(0 0 1178.22)
(0 0 769.323)
(0 0 716.73)
(0 0 1466.7)
(0 0 1241.4)
(0 0 2300.2)
(0 0 1844.81)
(0 0 2542.43)
(0 0 2095.78)
(0 0 2686.37)
(0 0 2137.01)
(0 0 2294.01)
(0 0 1530.61)
(0 0 1689.78)
(0 0 933.186)
(0 0 1136.07)
(0 0 778.855)
(0 0 1070.9)
(0 0 649.601)
(0 0 867.644)
(0 0 1410.49)
(0 0 1691.86)
(0 0 1743.36)
(0 0 2104.69)
(0 0 1948.84)
(0 0 1958.93)
(0 0 1842.74)
(0 0 1579.53)
(0 0 1167.21)
(0 0 473.686)
(0 0 126.57)
(0 0 1395.45)
(0 0 2716.85)
(0 0 4925.3)
(0 0 7149.31)
(0 0 8523.35)
(0 0 10433.2)
(0 0 10908.1)
(0 0 10727.2)
(0 0 9315.09)
(0 0 7579.86)
(0 0 6226.87)
(0 0 5299.09)
(0 0 4830.42)
(0 0 5448.89)
(0 0 5760.69)
(0 0 4432.58)
(0 0 1069.41)
(0 0 -1325.75)
(0 0 1114.7)
(0 0 4032.32)
(0 0 3060.99)
(0 0 3322.09)
(0 0 3622.95)
(0 0 5252.94)
(0 0 5737.64)
(0 0 6996.34)
(0 0 8456.33)
(0 0 8023.4)
(0 0 7891.68)
(0 0 6975.34)
(0 0 7347.23)
(0 0 7933.97)
(0 0 9390.35)
(0 0 11125.6)
(0 0 11197.5)
(0 0 9071.34)
(0 0 5978.63)
(0 0 5192.16)
(0 0 5647.05)
(0 0 4963.44)
(0 0 5059.91)
(0 0 4175.12)
(0 0 4671.41)
(0 0 4799.72)
(0 0 4280.24)
(0 0 4423.23)
(0 0 4032.58)
(0 0 4433.05)
(0 0 4113.91)
(0 0 4261.72)
(0 0 4052.22)
(0 0 3823.56)
(0 0 3454.85)
(0 0 2997.22)
(0 0 2691.51)
(0 0 2270.95)
(0 0 1839.55)
(0 0 1622.82)
(0 0 1275.21)
(0 0 913.886)
(0 0 945.145)
(0 0 1341.77)
(0 0 1238.64)
(0 0 1569.48)
(0 0 1194.42)
(0 0 1481.55)
(0 0 915.454)
(0 0 1137.77)
(0 0 708.537)
(0 0 490.912)
(0 0 1270.47)
(0 0 1463.92)
(0 0 1246.27)
(0 0 1883.36)
(0 0 2748.59)
(0 0 2294.77)
(0 0 2017.52)
(0 0 2267.1)
(0 0 2908.53)
(0 0 2207.31)
(0 0 1851.85)
(0 0 2020.74)
(0 0 1404.78)
(0 0 1570.1)
(0 0 1115.39)
(0 0 1032.87)
(0 0 1215.3)
(0 0 668.041)
(0 0 873.43)
(0 0 1389.95)
(0 0 1441.57)
(0 0 1967.26)
(0 0 1900.17)
(0 0 2010.34)
(0 0 1933.73)
(0 0 1565.76)
(0 0 910.185)
(0 0 325.759)
(0 0 -199.481)
(0 0 -471.055)
(0 0 1296.32)
(0 0 2853.14)
(0 0 5377.18)
(0 0 6669.42)
(0 0 8317.68)
(0 0 10161.3)
(0 0 9870.93)
(0 0 8421.09)
(0 0 7270.27)
(0 0 5837.15)
(0 0 4644.43)
(0 0 2969.9)
(0 0 1767.6)
(0 0 1802.25)
(0 0 1465.66)
(0 0 -2327.8)
(0 0 -6444.34)
(0 0 -6982.92)
(0 0 1540.62)
(0 0 2629.29)
(0 0 870.766)
(0 0 382.55)
(0 0 2224.23)
(0 0 3969.38)
(0 0 4781.42)
(0 0 6036.3)
(0 0 7499.84)
(0 0 7421.27)
(0 0 7462.2)
(0 0 6626)
(0 0 6302.38)
(0 0 6903.32)
(0 0 8678.5)
(0 0 10688)
(0 0 11872.3)
(0 0 10065.2)
(0 0 6569.43)
(0 0 5679.04)
(0 0 4999.01)
(0 0 5078.42)
(0 0 4773.02)
(0 0 3957.41)
(0 0 4247.19)
(0 0 4510.57)
(0 0 4255.28)
(0 0 4346.67)
(0 0 3843.86)
(0 0 4290.46)
(0 0 4110.88)
(0 0 4026.02)
(0 0 3880.18)
(0 0 3676.19)
(0 0 3466.32)
(0 0 3121.36)
(0 0 2753.61)
(0 0 2325.48)
(0 0 1879.28)
(0 0 1628.34)
(0 0 1495.69)
(0 0 1065.39)
(0 0 1128.96)
(0 0 1180.72)
(0 0 1496.06)
(0 0 1253.13)
(0 0 1355.37)
(0 0 975.792)
(0 0 954.74)
(0 0 969.618)
(0 0 1066)
(0 0 490.312)
(0 0 1075.11)
(0 0 968.203)
(0 0 1637.9)
(0 0 1534.71)
(0 0 2356.54)
(0 0 2979.14)
(0 0 2279.14)
(0 0 2770.62)
(0 0 2316.3)
(0 0 2759.01)
(0 0 2680.49)
(0 0 1798.56)
(0 0 1915.7)
(0 0 1415.41)
(0 0 939.86)
(0 0 1082.22)
(0 0 1412.72)
(0 0 651.576)
(0 0 801.034)
(0 0 1222.67)
(0 0 1589.75)
(0 0 1749.26)
(0 0 1960.72)
(0 0 1849.38)
(0 0 1772.32)
(0 0 1201.88)
(0 0 362.592)
(0 0 -269.876)
(0 0 -1100.8)
(0 0 -1001.03)
(0 0 783.811)
(0 0 3630.84)
(0 0 5158.45)
(0 0 7069.14)
(0 0 8017.17)
(0 0 8757.32)
(0 0 8393.3)
(0 0 6489.84)
(0 0 4429.52)
(0 0 2509.76)
(0 0 777.825)
(0 0 -1615.75)
(0 0 -2137.61)
(0 0 -1117.78)
(0 0 -3504.66)
(0 0 -8334.61)
(0 0 -11320.1)
(0 0 -7799.77)
(0 0 1139.25)
(0 0 -2342.71)
(0 0 -2801.34)
(0 0 -1823.58)
(0 0 -541.074)
(0 0 1058.61)
(0 0 3420.73)
(0 0 5356.92)
(0 0 6115.82)
(0 0 6832.96)
(0 0 6444.71)
(0 0 5406.07)
(0 0 5555.09)
(0 0 6580.77)
(0 0 7599.84)
(0 0 9527.85)
(0 0 12188.9)
(0 0 11273.5)
(0 0 7431.64)
(0 0 5701.27)
(0 0 5271.03)
(0 0 4903.95)
(0 0 4177.51)
(0 0 4116.75)
(0 0 4324.36)
(0 0 4266.13)
(0 0 4379.08)
(0 0 4106.48)
(0 0 3786.71)
(0 0 4147.5)
(0 0 3894.29)
(0 0 4023.32)
(0 0 3647.76)
(0 0 3613.4)
(0 0 3530.92)
(0 0 3169.07)
(0 0 2814.23)
(0 0 2378.15)
(0 0 1976.27)
(0 0 1677.92)
(0 0 1624.7)
(0 0 1210.89)
(0 0 1137.39)
(0 0 1371.04)
(0 0 1337.24)
(0 0 1337.57)
(0 0 1019.61)
(0 0 976.972)
(0 0 562.727)
(0 0 352.315)
(0 0 726.404)
(0 0 478.583)
(0 0 999.824)
(0 0 1296.25)
(0 0 1703.72)
(0 0 1811.97)
(0 0 1946.65)
(0 0 2711.12)
(0 0 2233.64)
(0 0 2105.25)
(0 0 2471.23)
(0 0 2865.69)
(0 0 2209.5)
(0 0 2157.73)
(0 0 1644.13)
(0 0 1125.25)
(0 0 1098.13)
(0 0 1277.37)
(0 0 1317.08)
(0 0 709.036)
(0 0 729.244)
(0 0 996.881)
(0 0 1520.34)
(0 0 1729.25)
(0 0 1788.22)
(0 0 1710.6)
(0 0 1409.67)
(0 0 688.123)
(0 0 -29.1538)
(0 0 -991.544)
(0 0 -1302.86)
(0 0 -846.158)
(0 0 676.877)
(0 0 3514.93)
(0 0 5877.67)
(0 0 6773.28)
(0 0 7837.22)
(0 0 7504.31)
(0 0 6519.6)
(0 0 4322.9)
(0 0 2313.48)
(0 0 -802.998)
(0 0 -4105.16)
(0 0 -6363.95)
(0 0 -5415.31)
(0 0 -7059.91)
(0 0 -9137.11)
(0 0 -12407.7)
(0 0 -14115.2)
(0 0 -7749.08)
(0 0 -4590.96)
(0 0 -5883.4)
(0 0 -4543.71)
(0 0 -4656.88)
(0 0 -3323.2)
(0 0 -415.215)
(0 0 2081.69)
(0 0 3352.52)
(0 0 4780.97)
(0 0 5178.24)
(0 0 4614.51)
(0 0 4510.85)
(0 0 5211.45)
(0 0 5701.44)
(0 0 6703.57)
(0 0 8373.61)
(0 0 11936.7)
(0 0 12415.4)
(0 0 8612.26)
(0 0 5992.83)
(0 0 5307.14)
(0 0 4829.07)
(0 0 4498.46)
(0 0 4535.23)
(0 0 4237.01)
(0 0 4426.84)
(0 0 4203.22)
(0 0 4260.9)
(0 0 4010.02)
(0 0 4099.8)
(0 0 3861.05)
(0 0 3925.05)
(0 0 3561.75)
(0 0 3540.19)
(0 0 3410.86)
(0 0 3132.28)
(0 0 2838.4)
(0 0 2464.95)
(0 0 2051.92)
(0 0 1729.66)
(0 0 1565.34)
(0 0 1424.44)
(0 0 1347.81)
(0 0 1396.93)
(0 0 1373.9)
(0 0 1219.29)
(0 0 990.105)
(0 0 802.735)
(0 0 627.068)
(0 0 307.541)
(0 0 604.663)
(0 0 716.03)
(0 0 849.653)
(0 0 1532.87)
(0 0 1903.61)
(0 0 1677.22)
(0 0 2157.22)
(0 0 2448.53)
(0 0 2332.31)
(0 0 2284.36)
(0 0 1930.54)
(0 0 1855.43)
(0 0 2159.52)
(0 0 1703.89)
(0 0 1236.91)
(0 0 873.14)
(0 0 1174.53)
(0 0 1444.73)
(0 0 1214.46)
(0 0 654.303)
(0 0 737.549)
(0 0 759.79)
(0 0 1353.59)
(0 0 1619.01)
(0 0 1575.07)
(0 0 1478.61)
(0 0 927.501)
(0 0 326.125)
(0 0 -639.159)
(0 0 -1381.5)
(0 0 -1991.91)
(0 0 -1226.38)
(0 0 1584.88)
(0 0 4199.64)
(0 0 5622.64)
(0 0 6850.93)
(0 0 6844.2)
(0 0 6255.94)
(0 0 4124.39)
(0 0 2145.9)
(0 0 -1860.31)
(0 0 -6373.6)
(0 0 -8859.06)
(0 0 -8885.24)
(0 0 -8452.58)
(0 0 -8841.25)
(0 0 -11550.1)
(0 0 -14905.6)
(0 0 -12963.1)
(0 0 -3100.85)
(0 0 -3919.89)
(0 0 -5055.25)
(0 0 -4752.56)
(0 0 -5369.1)
(0 0 -4981.44)
(0 0 -3542.52)
(0 0 -296.047)
(0 0 1810.88)
(0 0 2549.98)
(0 0 3442.58)
(0 0 4127.28)
(0 0 4612.62)
(0 0 4449.27)
(0 0 5023.17)
(0 0 5601.11)
(0 0 6921.96)
(0 0 10685.3)
(0 0 13374.7)
(0 0 9748.34)
(0 0 6459.71)
(0 0 5399.53)
(0 0 4506.3)
(0 0 4981.4)
(0 0 4476.11)
(0 0 4398.94)
(0 0 4582.55)
(0 0 4284.87)
(0 0 4121.69)
(0 0 4090.34)
(0 0 3880.86)
(0 0 3955.91)
(0 0 3760.08)
(0 0 3607.8)
(0 0 3320.87)
(0 0 3292.56)
(0 0 3092.54)
(0 0 2801.83)
(0 0 2545.87)
(0 0 2087.37)
(0 0 1861.25)
(0 0 1616.93)
(0 0 1445.24)
(0 0 1596.88)
(0 0 1464.56)
(0 0 1382.35)
(0 0 1103.68)
(0 0 1004.46)
(0 0 686.882)
(0 0 721.983)
(0 0 478.332)
(0 0 868.434)
(0 0 820.325)
(0 0 1347.48)
(0 0 1445.12)
(0 0 1728.82)
(0 0 1771.97)
(0 0 2015.3)
(0 0 2171.26)
(0 0 2226.87)
(0 0 2362.36)
(0 0 1957.08)
(0 0 1313.05)
(0 0 1785.69)
(0 0 1274.38)
(0 0 915.558)
(0 0 892.864)
(0 0 1072.55)
(0 0 1474.34)
(0 0 1114.18)
(0 0 483.762)
(0 0 668.125)
(0 0 739.18)
(0 0 1141.01)
(0 0 1195.18)
(0 0 1306)
(0 0 951.223)
(0 0 603.953)
(0 0 -221.719)
(0 0 -1021.58)
(0 0 -2051.95)
(0 0 -2145.69)
(0 0 -1494.62)
(0 0 1137.86)
(0 0 4650.43)
(0 0 6119.52)
(0 0 6074.31)
(0 0 6034.07)
(0 0 4462.51)
(0 0 1670.36)
(0 0 -1437.13)
(0 0 -7228.03)
(0 0 -10926.8)
(0 0 -11164.8)
(0 0 -10228.8)
(0 0 -9060.82)
(0 0 -10580.6)
(0 0 -13008.1)
(0 0 -15470.6)
(0 0 -9838.95)
(0 0 29.85)
(0 0 -3345.34)
(0 0 -1993.26)
(0 0 -1869.23)
(0 0 -2422.12)
(0 0 -4344.53)
(0 0 -3765.91)
(0 0 -1724.59)
(0 0 -324.041)
(0 0 1548.8)
(0 0 2908.73)
(0 0 4183.42)
(0 0 3778.33)
(0 0 3772.14)
(0 0 4007.39)
(0 0 4254.52)
(0 0 5401.04)
(0 0 8492.05)
(0 0 13063.5)
(0 0 10541)
(0 0 7380.27)
(0 0 5558.47)
(0 0 4501.27)
(0 0 4951.03)
(0 0 4631.03)
(0 0 4538.61)
(0 0 4346.78)
(0 0 4149.98)
(0 0 4175.01)
(0 0 3923.87)
(0 0 3852.6)
(0 0 3818.46)
(0 0 3818.39)
(0 0 3482.09)
(0 0 3307.81)
(0 0 3105.82)
(0 0 3016.71)
(0 0 2794.89)
(0 0 2486.61)
(0 0 2184.91)
(0 0 1879.66)
(0 0 1763.85)
(0 0 1654.18)
(0 0 1656.77)
(0 0 1445.33)
(0 0 1264.75)
(0 0 1221.87)
(0 0 875.063)
(0 0 981.543)
(0 0 689.719)
(0 0 1206.55)
(0 0 960.432)
(0 0 1257.12)
(0 0 966.941)
(0 0 362.226)
(0 0 1221.18)
(0 0 1637)
(0 0 1602.48)
(0 0 1824.36)
(0 0 1896.12)
(0 0 2118.05)
(0 0 1706.67)
(0 0 1066.56)
(0 0 1241.36)
(0 0 873.047)
(0 0 831.464)
(0 0 832.844)
(0 0 1128.67)
(0 0 1529.11)
(0 0 927.305)
(0 0 452.492)
(0 0 520.801)
(0 0 682.296)
(0 0 836.884)
(0 0 603.025)
(0 0 626.95)
(0 0 699.973)
(0 0 97.2402)
(0 0 -518.152)
(0 0 -1617.68)
(0 0 -2294.98)
(0 0 -2594.07)
(0 0 -1241.1)
(0 0 565.714)
(0 0 3389.61)
(0 0 5078.54)
(0 0 5498.53)
(0 0 4183.21)
(0 0 2230.72)
(0 0 -953.998)
(0 0 -6521.24)
(0 0 -11967.1)
(0 0 -12787.7)
(0 0 -10952.2)
(0 0 -9226.61)
(0 0 -10269.2)
(0 0 -10990.3)
(0 0 -13553.1)
(0 0 -13355.9)
(0 0 -4996.6)
(0 0 345.907)
(0 0 -759.317)
(0 0 717.81)
(0 0 1672.19)
(0 0 1661.63)
(0 0 -805.784)
(0 0 -3220.21)
(0 0 -3170.42)
(0 0 -1255.68)
(0 0 -221.761)
(0 0 1850.79)
(0 0 3060.39)
(0 0 3018.66)
(0 0 3180.87)
(0 0 3012.31)
(0 0 3363.24)
(0 0 3997.9)
(0 0 6517.12)
(0 0 11751.4)
(0 0 11139.2)
(0 0 7981.43)
(0 0 5492.08)
(0 0 4795.74)
(0 0 4785.71)
(0 0 4880.84)
(0 0 4519.8)
(0 0 4021.66)
(0 0 4204.38)
(0 0 3986.27)
(0 0 3984.86)
(0 0 3625.93)
(0 0 3751.74)
(0 0 3721.68)
(0 0 3423.64)
(0 0 3166.85)
(0 0 3028.17)
(0 0 2893.52)
(0 0 2730.11)
(0 0 2494.35)
(0 0 2126.71)
(0 0 1982.58)
(0 0 1791.21)
(0 0 1808.31)
(0 0 1645.42)
(0 0 1294.93)
(0 0 1390.23)
(0 0 1040.13)
(0 0 1224.53)
(0 0 823.937)
(0 0 876.042)
(0 0 1618.56)
(0 0 1242.41)
(0 0 396.878)
(0 0 187.101)
(0 0 281.116)
(0 0 1289.19)
(0 0 1094.98)
(0 0 1379.79)
(0 0 1993.41)
(0 0 2016.64)
(0 0 1566.2)
(0 0 1401.94)
(0 0 779.193)
(0 0 836.195)
(0 0 584.851)
(0 0 716.612)
(0 0 780.73)
(0 0 1056.59)
(0 0 1264.91)
(0 0 619.681)
(0 0 487.955)
(0 0 422.476)
(0 0 617.839)
(0 0 565.16)
(0 0 122.489)
(0 0 57.0945)
(0 0 156.084)
(0 0 -160.524)
(0 0 -1099.09)
(0 0 -1832.49)
(0 0 -2530.85)
(0 0 -2764.32)
(0 0 -1095.23)
(0 0 924.555)
(0 0 2773.48)
(0 0 4263.76)
(0 0 4130.01)
(0 0 2368.25)
(0 0 73.4404)
(0 0 -4776.66)
(0 0 -10945.5)
(0 0 -14299.7)
(0 0 -12541)
(0 0 -10127.3)
(0 0 -10020.7)
(0 0 -10192.9)
(0 0 -11062.2)
(0 0 -11120.6)
(0 0 -10063.6)
(0 0 -2123.6)
(0 0 4791.47)
(0 0 2241.26)
(0 0 4077.55)
(0 0 5079.96)
(0 0 6110.5)
(0 0 4366.54)
(0 0 1232.58)
(0 0 -1130.49)
(0 0 -1513.24)
(0 0 -1383.35)
(0 0 351.462)
(0 0 1806.28)
(0 0 2766.69)
(0 0 2652.36)
(0 0 2860.66)
(0 0 2598.74)
(0 0 2964.26)
(0 0 4987.04)
(0 0 10037.5)
(0 0 10964.1)
(0 0 8454.5)
(0 0 5787.67)
(0 0 4792.4)
(0 0 4947.31)
(0 0 4922.87)
(0 0 4317.81)
(0 0 4197.42)
(0 0 4054.18)
(0 0 4102.05)
(0 0 3930.03)
(0 0 3496.63)
(0 0 3677.04)
(0 0 3478.33)
(0 0 3402.16)
(0 0 3152.26)
(0 0 2909.51)
(0 0 2745.1)
(0 0 2597.19)
(0 0 2444.46)
(0 0 2131.24)
(0 0 1964.09)
(0 0 1994.46)
(0 0 1749.2)
(0 0 1365.84)
(0 0 1453.92)
(0 0 1136.25)
(0 0 1496)
(0 0 1230.04)
(0 0 1660.78)
(0 0 1607.46)
(0 0 1179.25)
(0 0 1074.61)
(0 0 1460.83)
(0 0 1211.61)
(0 0 1065.5)
(0 0 719.976)
(0 0 971.854)
(0 0 1641.09)
(0 0 1550.39)
(0 0 1251.06)
(0 0 1468.27)
(0 0 827.508)
(0 0 1021.94)
(0 0 445.868)
(0 0 570.471)
(0 0 533.197)
(0 0 911.316)
(0 0 1257.48)
(0 0 1122.95)
(0 0 251.449)
(0 0 572.352)
(0 0 314.874)
(0 0 404.45)
(0 0 151.718)
(0 0 122.73)
(0 0 -132.969)
(0 0 -526.424)
(0 0 -758.251)
(0 0 -1351.17)
(0 0 -2070.45)
(0 0 -2846.78)
(0 0 -2682.83)
(0 0 -1658.76)
(0 0 104.068)
(0 0 2280.67)
(0 0 3785.69)
(0 0 2371.66)
(0 0 542.088)
(0 0 -3058.03)
(0 0 -8502.61)
(0 0 -13629.6)
(0 0 -13927.9)
(0 0 -10974.2)
(0 0 -9075.12)
(0 0 -9548.34)
(0 0 -10038.1)
(0 0 -9002.55)
(0 0 -8409.58)
(0 0 -5191.1)
(0 0 3788.54)
(0 0 5694.26)
(0 0 2011.14)
(0 0 2846.63)
(0 0 3495)
(0 0 6322.28)
(0 0 9665.44)
(0 0 7331.99)
(0 0 3416.33)
(0 0 465.378)
(0 0 -959.672)
(0 0 -654.594)
(0 0 1651.71)
(0 0 2468.05)
(0 0 2584.78)
(0 0 2460.39)
(0 0 2044.79)
(0 0 1970.65)
(0 0 3666.83)
(0 0 8127.77)
(0 0 10327.8)
(0 0 8773.48)
(0 0 6010.85)
(0 0 4967.18)
(0 0 4849.96)
(0 0 4773.26)
(0 0 4544.74)
(0 0 4204.09)
(0 0 4164.78)
(0 0 4079.08)
(0 0 3657.33)
(0 0 3654.54)
(0 0 3498.15)
(0 0 3503.99)
(0 0 3277.02)
(0 0 3122.08)
(0 0 2748.96)
(0 0 2758.59)
(0 0 2539.39)
(0 0 2352.5)
(0 0 2144.95)
(0 0 2176.52)
(0 0 2048.35)
(0 0 2116.64)
(0 0 1948.08)
(0 0 1129.7)
(0 0 1533.86)
(0 0 1095.77)
(0 0 1702.63)
(0 0 1202.51)
(0 0 1614.62)
(0 0 1117.38)
(0 0 1326.25)
(0 0 715.653)
(0 0 1054.17)
(0 0 536.99)
(0 0 955.218)
(0 0 1429.77)
(0 0 1060.96)
(0 0 601.3)
(0 0 1277.74)
(0 0 1175.69)
(0 0 515.373)
(0 0 427.057)
(0 0 589.043)
(0 0 271.958)
(0 0 646.187)
(0 0 799.679)
(0 0 1124.47)
(0 0 1219.36)
(0 0 -29.2021)
(0 0 379.222)
(0 0 128.37)
(0 0 34.6483)
(0 0 29.9192)
(0 0 -571.756)
(0 0 -810.559)
(0 0 -739.363)
(0 0 -1342.91)
(0 0 -1917.92)
(0 0 -2290.4)
(0 0 -2812.48)
(0 0 -2986.03)
(0 0 -1514.85)
(0 0 -77.0523)
(0 0 1856.34)
(0 0 2238.03)
(0 0 951.026)
(0 0 -2075.51)
(0 0 -6120)
(0 0 -12204.3)
(0 0 -14976.3)
(0 0 -12112.9)
(0 0 -9648.32)
(0 0 -9483.01)
(0 0 -9122.34)
(0 0 -7804.71)
(0 0 -6340.59)
(0 0 -3737.26)
(0 0 -794.342)
(0 0 12541.3)
(0 0 5050.56)
(0 0 2412.81)
(0 0 2140.77)
(0 0 2842.07)
(0 0 5090.05)
(0 0 9284.98)
(0 0 11111.9)
(0 0 7898.15)
(0 0 4608.58)
(0 0 1005.32)
(0 0 -394.95)
(0 0 1063.03)
(0 0 2464.06)
(0 0 2469.93)
(0 0 2543.34)
(0 0 1370.34)
(0 0 708.43)
(0 0 2002.62)
(0 0 6358.08)
(0 0 9205.41)
(0 0 8881.36)
(0 0 6353.41)
(0 0 4965.78)
(0 0 4957.41)
(0 0 4844.02)
(0 0 4553.08)
(0 0 4266.7)
(0 0 4027.16)
(0 0 3855.99)
(0 0 3661.55)
(0 0 3444.4)
(0 0 3529.51)
(0 0 3446.24)
(0 0 2994.78)
(0 0 3004.69)
(0 0 2816.79)
(0 0 2661.64)
(0 0 2269.16)
(0 0 2397.12)
(0 0 2141.1)
(0 0 2079.79)
(0 0 2415.62)
(0 0 2034.21)
(0 0 2042.59)
(0 0 1479.56)
(0 0 856.108)
(0 0 1245.74)
(0 0 2103.52)
(0 0 1821.39)
(0 0 984.454)
(0 0 1456.73)
(0 0 847.373)
(0 0 1096.55)
(0 0 852.735)
(0 0 1732.93)
(0 0 1624.33)
(0 0 1097.71)
(0 0 337.425)
(0 0 849.289)
(0 0 638.361)
(0 0 627.153)
(0 0 954.742)
(0 0 300.364)
(0 0 161.459)
(0 0 482.407)
(0 0 422.018)
(0 0 978.411)
(0 0 1354.11)
(0 0 1238.67)
(0 0 -289.04)
(0 0 404.277)
(0 0 8.20124)
(0 0 -262.91)
(0 0 -524.224)
(0 0 -532.381)
(0 0 -836.09)
(0 0 -1054.67)
(0 0 -1856.48)
(0 0 -2033.75)
(0 0 -2658.17)
(0 0 -2841.49)
(0 0 -2854.95)
(0 0 -1862.18)
(0 0 -200.822)
(0 0 698.551)
(0 0 1306.29)
(0 0 -951.699)
(0 0 -4690.02)
(0 0 -9304.9)
(0 0 -14100.8)
(0 0 -12782)
(0 0 -10899.4)
(0 0 -8624.26)
(0 0 -8576.8)
(0 0 -7632.35)
(0 0 -4938.88)
(0 0 -2084.04)
(0 0 -49.6459)
(0 0 3361.5)
(0 0 19406.4)
(0 0 7056.26)
(0 0 2176.8)
(0 0 1485.39)
(0 0 2359.03)
(0 0 4794.95)
(0 0 8740.93)
(0 0 11710.3)
(0 0 8447.33)
(0 0 5641.48)
(0 0 2955)
(0 0 385.222)
(0 0 853.32)
(0 0 2395.31)
(0 0 2678.38)
(0 0 2390.41)
(0 0 853.128)
(0 0 -205.663)
(0 0 281.019)
(0 0 4721.95)
(0 0 7686.24)
(0 0 8713.54)
(0 0 6524.24)
(0 0 5096.04)
(0 0 5020.47)
(0 0 4921.14)
(0 0 4509.22)
(0 0 4194.08)
(0 0 4143)
(0 0 3864.06)
(0 0 3443.03)
(0 0 3383.43)
(0 0 3385.34)
(0 0 3213.71)
(0 0 2793.41)
(0 0 2847.01)
(0 0 2596.6)
(0 0 2634.07)
(0 0 2136.48)
(0 0 2191.53)
(0 0 2635.92)
(0 0 2331.46)
(0 0 2322.57)
(0 0 2342.07)
(0 0 1685.22)
(0 0 1444.15)
(0 0 982.08)
(0 0 1633.65)
(0 0 1189.9)
(0 0 1785.06)
(0 0 1209.87)
(0 0 1665.93)
(0 0 1180.25)
(0 0 497.4)
(0 0 1044.5)
(0 0 693.83)
(0 0 1081.44)
(0 0 469.539)
(0 0 674.263)
(0 0 497.053)
(0 0 865.014)
(0 0 783.407)
(0 0 659.863)
(0 0 490.397)
(0 0 667.884)
(0 0 137.266)
(0 0 590.089)
(0 0 574.024)
(0 0 786.177)
(0 0 1182.71)
(0 0 -45.6849)
(0 0 462.773)
(0 0 -248.597)
(0 0 -260.214)
(0 0 -666.707)
(0 0 -1299.32)
(0 0 -1649.67)
(0 0 -1928.86)
(0 0 -2304.48)
(0 0 -2215.45)
(0 0 -2670.36)
(0 0 -3152.22)
(0 0 -3105.92)
(0 0 -2036.15)
(0 0 -1375.32)
(0 0 -207.494)
(0 0 -552.145)
(0 0 -3226.55)
(0 0 -7258.59)
(0 0 -12126.4)
(0 0 -14305.1)
(0 0 -12094.5)
(0 0 -9262.66)
(0 0 -8073.63)
(0 0 -6749.18)
(0 0 -4959.13)
(0 0 -1541.89)
(0 0 2014.75)
(0 0 4508.31)
(0 0 8611.74)
(0 0 10980.2)
(0 0 3413.94)
(0 0 727.624)
(0 0 570.179)
(0 0 637.044)
(0 0 3518.86)
(0 0 9458.05)
(0 0 12823.1)
(0 0 8405.1)
(0 0 5484.12)
(0 0 2826.33)
(0 0 859.189)
(0 0 1332.99)
(0 0 3044.45)
(0 0 2816.79)
(0 0 2139.36)
(0 0 865.739)
(0 0 -986.908)
(0 0 -1182.11)
(0 0 3020.59)
(0 0 6284.77)
(0 0 8044.96)
(0 0 6729.69)
(0 0 5439.49)
(0 0 4948.77)
(0 0 4920.54)
(0 0 4547.37)
(0 0 4139.5)
(0 0 4032.06)
(0 0 3712.59)
(0 0 3339.15)
(0 0 3118.34)
(0 0 3009.78)
(0 0 2829.73)
(0 0 2924.38)
(0 0 2647.28)
(0 0 2802.79)
(0 0 2662.94)
(0 0 2101.36)
(0 0 2455.36)
(0 0 2993.61)
(0 0 2839.02)
(0 0 2346.87)
(0 0 2404.23)
(0 0 1867.24)
(0 0 1823.69)
(0 0 1331.81)
(0 0 922.588)
(0 0 1674.59)
(0 0 1073.84)
(0 0 1511.39)
(0 0 956.851)
(0 0 1092.04)
(0 0 876.889)
(0 0 638.99)
(0 0 1399.2)
(0 0 490.08)
(0 0 639.341)
(0 0 191.608)
(0 0 561.797)
(0 0 395.685)
(0 0 1151.22)
(0 0 1001.38)
(0 0 964.568)
(0 0 285.6)
(0 0 694.232)
(0 0 803.967)
(0 0 533.808)
(0 0 334.698)
(0 0 982.076)
(0 0 721.284)
(0 0 178.314)
(0 0 -487.635)
(0 0 -559.563)
(0 0 -1351.48)
(0 0 -1729.1)
(0 0 -1612.52)
(0 0 -1960.76)
(0 0 -2272.95)
(0 0 -2708.99)
(0 0 -2991.85)
(0 0 -3014.84)
(0 0 -2890.09)
(0 0 -2642.28)
(0 0 -1901.77)
(0 0 -1641.46)
(0 0 -2311.96)
(0 0 -5874.8)
(0 0 -9872.82)
(0 0 -13577.8)
(0 0 -12546.1)
(0 0 -11067.8)
(0 0 -7906.6)
(0 0 -6978.51)
(0 0 -4861.91)
(0 0 -1974.51)
(0 0 4281.07)
(0 0 6496)
(0 0 6008.81)
(0 0 7322.68)
(0 0 1797.94)
(0 0 1536.52)
(0 0 1851.15)
(0 0 2478.89)
(0 0 2453.36)
(0 0 3682)
(0 0 5862.04)
(0 0 11339.3)
(0 0 7550.83)
(0 0 5027.58)
(0 0 2211.54)
(0 0 568.651)
(0 0 1816)
(0 0 4334.69)
(0 0 3542.5)
(0 0 2497.53)
(0 0 1566.14)
(0 0 -1652.78)
(0 0 -2686.55)
(0 0 1354.01)
(0 0 4870.42)
(0 0 7122.83)
(0 0 6698.89)
(0 0 5399.1)
(0 0 4966.66)
(0 0 4749.76)
(0 0 4355.65)
(0 0 3997.31)
(0 0 3751.05)
(0 0 3640.07)
(0 0 3059.66)
(0 0 2938.3)
(0 0 2673.76)
(0 0 2694.18)
(0 0 2733.08)
(0 0 2883.18)
(0 0 2748.67)
(0 0 2325.1)
(0 0 2313.96)
(0 0 2428.07)
(0 0 2913.38)
(0 0 2630.58)
(0 0 2693.11)
(0 0 2173.15)
(0 0 2023.89)
(0 0 1256.93)
(0 0 1385.85)
(0 0 994.424)
(0 0 1959.6)
(0 0 1441.4)
(0 0 705.266)
(0 0 890.448)
(0 0 273.247)
(0 0 931.286)
(0 0 757.324)
(0 0 1505.14)
(0 0 736.021)
(0 0 149.091)
(0 0 255.127)
(0 0 225.012)
(0 0 117.551)
(0 0 645.96)
(0 0 1269.39)
(0 0 629.295)
(0 0 743.58)
(0 0 222.519)
(0 0 786.431)
(0 0 621.114)
(0 0 678.693)
(0 0 1778.05)
(0 0 1018.69)
(0 0 233.964)
(0 0 -687.51)
(0 0 -1139.13)
(0 0 -1306.99)
(0 0 -1672)
(0 0 -2348.39)
(0 0 -2526.05)
(0 0 -2257.99)
(0 0 -2672.47)
(0 0 -3079.65)
(0 0 -3087.75)
(0 0 -2722.12)
(0 0 -2830.83)
(0 0 -2434.49)
(0 0 -3052.63)
(0 0 -4452.44)
(0 0 -7889.07)
(0 0 -11865.6)
(0 0 -13267.4)
(0 0 -11879.8)
(0 0 -9197.97)
(0 0 -6858.94)
(0 0 -5382.39)
(0 0 -2125.62)
(0 0 2696.11)
(0 0 5746.39)
(0 0 4565.94)
(0 0 3645.91)
(0 0 5119.12)
(0 0 2131.15)
(0 0 -440.463)
(0 0 558.693)
(0 0 2150.77)
(0 0 784.508)
(0 0 2185.69)
(0 0 4064.3)
(0 0 8452.22)
(0 0 8391.03)
(0 0 4346.06)
(0 0 1169.99)
(0 0 52.7199)
(0 0 1934.99)
(0 0 5873.49)
(0 0 5226.01)
(0 0 3960.36)
(0 0 2699.35)
(0 0 -1304.29)
(0 0 -3726.24)
(0 0 -389.88)
(0 0 3574.97)
(0 0 5985.94)
(0 0 6286.85)
(0 0 5427.17)
(0 0 4736.93)
(0 0 4686.27)
(0 0 4278.71)
(0 0 3645.76)
(0 0 3575.27)
(0 0 3509.85)
(0 0 2859.06)
(0 0 2520.08)
(0 0 2605.27)
(0 0 2217.89)
(0 0 2724.15)
(0 0 2711.83)
(0 0 2434.59)
(0 0 3007.72)
(0 0 3319.31)
(0 0 2998.24)
(0 0 2504.45)
(0 0 2839.06)
(0 0 2498.12)
(0 0 2349.34)
(0 0 1420.25)
(0 0 883.52)
(0 0 92.9125)
(0 0 453.34)
(0 0 1298.9)
(0 0 509.718)
(0 0 823.564)
(0 0 14.2391)
(0 0 361.707)
(0 0 47.0274)
(0 0 666.05)
(0 0 1176.89)
(0 0 310.149)
(0 0 283.074)
(0 0 -138.096)
(0 0 -534.025)
(0 0 340.375)
(0 0 390.801)
(0 0 930.697)
(0 0 860.315)
(0 0 -8.38996)
(0 0 405.629)
(0 0 264.876)
(0 0 1037.91)
(0 0 1435.98)
(0 0 1431.97)
(0 0 1586.87)
(0 0 143.01)
(0 0 -616.474)
(0 0 -1143.95)
(0 0 -1383.17)
(0 0 -2154.83)
(0 0 -2385.65)
(0 0 -2794.23)
(0 0 -2345.66)
(0 0 -2888.26)
(0 0 -2700.31)
(0 0 -2930.38)
(0 0 -2597.46)
(0 0 -2437.98)
(0 0 -2826.78)
(0 0 -4375.32)
(0 0 -6392.75)
(0 0 -9735.33)
(0 0 -12463.9)
(0 0 -12482.2)
(0 0 -10155.4)
(0 0 -7569.66)
(0 0 -5718.56)
(0 0 -3186.3)
(0 0 262.899)
(0 0 3210.59)
(0 0 3752.44)
(0 0 2527.77)
(0 0 2230.73)
(0 0 2535.34)
(0 0 1504.15)
(0 0 -1780.43)
(0 0 694.97)
(0 0 1763.69)
(0 0 1209.36)
(0 0 296.996)
(0 0 6540.16)
(0 0 5754.88)
(0 0 9431.6)
(0 0 4363.04)
(0 0 367.15)
(0 0 -445.219)
(0 0 2218.47)
(0 0 7403.29)
(0 0 7200)
(0 0 5377.75)
(0 0 3515.88)
(0 0 319.006)
(0 0 -3870.92)
(0 0 -2146.41)
(0 0 2285.31)
(0 0 4935.86)
(0 0 5992.64)
(0 0 5091.73)
(0 0 4706.03)
(0 0 4347.62)
(0 0 4255.71)
(0 0 3872.92)
(0 0 3123.95)
(0 0 2966.98)
(0 0 3127.67)
(0 0 2889.83)
(0 0 2284.78)
(0 0 1882.61)
(0 0 2163.8)
(0 0 2075.76)
(0 0 2627.69)
(0 0 2321.24)
(0 0 3211.71)
(0 0 3278.81)
(0 0 2925.35)
(0 0 2423.74)
(0 0 2460.31)
(0 0 1576.07)
(0 0 1246.99)
(0 0 23.8572)
(0 0 438.412)
(0 0 564.327)
(0 0 218.626)
(0 0 925.164)
(0 0 67.3882)
(0 0 258.508)
(0 0 19.7753)
(0 0 1205.29)
(0 0 1516.87)
(0 0 488.494)
(0 0 606.896)
(0 0 -62.04)
(0 0 -637.568)
(0 0 -559.434)
(0 0 -200.047)
(0 0 246.22)
(0 0 125.084)
(0 0 642.531)
(0 0 250.157)
(0 0 -199.356)
(0 0 400.418)
(0 0 795.464)
(0 0 1465.16)
(0 0 1397.44)
(0 0 1896.51)
(0 0 102.275)
(0 0 -926.622)
(0 0 -1577.16)
(0 0 -1809.71)
(0 0 -2118.26)
(0 0 -2745.89)
(0 0 -2513.5)
(0 0 -2711.4)
(0 0 -2516.53)
(0 0 -2580.13)
(0 0 -2426.44)
(0 0 -2273.46)
(0 0 -2028)
(0 0 -2530.43)
(0 0 -4790.29)
(0 0 -7835.35)
(0 0 -10918.1)
(0 0 -12310.4)
(0 0 -11016.6)
(0 0 -8871.89)
(0 0 -6357.63)
(0 0 -4071.67)
(0 0 -1807.17)
(0 0 768.282)
(0 0 3041.49)
(0 0 2606.89)
(0 0 378.633)
(0 0 1002.46)
(0 0 2152.16)
(0 0 -1176.27)
(0 0 -1310.91)
(0 0 1065.04)
(0 0 4706.06)
(0 0 9155.08)
(0 0 7517.97)
(0 0 7922.62)
(0 0 7754.91)
(0 0 9453.9)
(0 0 4171.32)
(0 0 446.527)
(0 0 24.1834)
(0 0 3700.08)
(0 0 9356.91)
(0 0 9819.18)
(0 0 6475.75)
(0 0 3857.61)
(0 0 1073.38)
(0 0 -2392.84)
(0 0 -3485.99)
(0 0 734.435)
(0 0 4154.33)
(0 0 5476.64)
(0 0 5033.69)
(0 0 4223.23)
(0 0 4270.99)
(0 0 3889.53)
(0 0 3697.94)
(0 0 3134.86)
(0 0 2948.53)
(0 0 2711.3)
(0 0 2692.47)
(0 0 1582.93)
(0 0 1954.13)
(0 0 1423.98)
(0 0 1738.65)
(0 0 2438)
(0 0 1927.89)
(0 0 1863.53)
(0 0 2512.48)
(0 0 3008.1)
(0 0 2474.71)
(0 0 1548.27)
(0 0 838.18)
(0 0 104.011)