/*--------------------------------*- C++ -*----------------------------------*\
| =========                 |                                                 |
| \\      /  F ield         | foam-extend: Open Source CFD                    |
|  \\    /   O peration     | Version:     5.0                                |
|   \\  /    A nd           | Web:         http://www.foam-extend.org         |
|    \\/     M anipulation  |                                                 |
\*---------------------------------------------------------------------------*/
FoamFile
{
    version     2.0;
    format      ascii;
    class       volScalarField;
    location    "0.075";
    object      p;
}
// * * * * * * * * * * * * * * * * * * * * * * * * * * * * * * * * * * * * * //

dimensions      [1 -1 -2 0 0 0 0];

internalField   nonuniform List<scalar> 
4000
(
-1.40214e+06
-1.40657e+06
-1.40863e+06
-1.40973e+06
-1.41021e+06
-1.40952e+06
-1.40941e+06
-1.40917e+06
-1.40605e+06
-1.40185e+06
-1.39474e+06
-1.38326e+06
-1.37073e+06
-1.34309e+06
-1.28278e+06
-1.20669e+06
-1.1394e+06
-1.09884e+06
-1.06962e+06
-1.029e+06
-983584
-932752
-909158
-894718
-867198
-850202
-830450
-785492
-712093
-612785
-504888
-426189
-402003
-393936
-358013
-294694
-208076
-111240
-40783.3
-12899.3
-13139.2
-17571.1
-11805.5
-10211.6
-1234.08
26393
50183.3
56182.7
63914.8
79061
90501.5
105639
119180
126981
129997
129667
129368
127708
124140
120157
115236
109464
102265
96303.3
91132
85959.4
79895.4
75865.1
73395.6
70143.6
67763.5
66683.5
66498
66045.6
64916.9
62925.3
59868.2
56877.3
54123.7
52007.2
50826.1
49819.6
49916.1
49849.6
47435.9
43377.9
37957
32141.4
27682
23052.3
18450.7
14641.8
11639.3
10684.2
10139.5
9987.74
10066.8
8622.4
5711.65
2379.57
-1.40209e+06
-1.40658e+06
-1.40849e+06
-1.40955e+06
-1.41006e+06
-1.40922e+06
-1.40905e+06
-1.40896e+06
-1.40572e+06
-1.40114e+06
-1.39416e+06
-1.3827e+06
-1.3705e+06
-1.3427e+06
-1.28183e+06
-1.20618e+06
-1.13964e+06
-1.09883e+06
-1.07037e+06
-1.03136e+06
-985831
-935022
-909524
-893491
-869032
-851045
-830647
-786767
-712177
-610511
-503983
-424840
-400258
-396408
-361948
-297103
-207335
-110485
-39896
-12969.6
-14538.9
-19306.1
-13559
-11811.8
-896.768
29121.2
54022
58787.3
65591.7
79810.3
90662.2
105183
118510
126167
129175
129317
129240
127216
123875
119908
114972
109223
101697
96244.1
91132.8
85905.9
79698.2
75690.6
73372
70079.4
67676.7
66582.2
66388.1
65909.2
64754.7
62811.3
59775.6
56797.7
54092.3
51976.9
50788.6
49718.6
49814.7
49744.4
47377.8
43271
37887.9
32161.6
27734.7
23061.2
18456.3
14725.3
11669.9
10791.2
10225.5
9965.24
10039.4
8674.58
5672.6
2278.44
-1.40187e+06
-1.40671e+06
-1.40847e+06
-1.40931e+06
-1.40987e+06
-1.40916e+06
-1.40891e+06
-1.40847e+06
-1.40541e+06
-1.40061e+06
-1.3934e+06
-1.38299e+06
-1.37169e+06
-1.34314e+06
-1.28092e+06
-1.20486e+06
-1.14019e+06
-1.10106e+06
-1.0715e+06
-1.03255e+06
-986864
-935811
-909642
-892311
-871429
-855940
-834327
-789936
-711159
-606872
-500935
-424407
-399671
-399604
-366850
-298627
-205940
-106944
-36113.2
-11018.1
-14945.3
-20467.4
-14423.8
-13357.7
-1794.01
31644.8
60281
62570.4
67346.3
81161.4
91204
105513
118584
125729
128810
129223
129377
126813
123709
119804
114820
109109
101486
95964.3
91092.2
85995.2
79438.7
75551.3
73233.3
70120.2
67578.5
66430.8
66357.7
65875.4
64642.6
62740
59598.8
56691.1
53978.6
51908.3
50767.8
49667.3
49809.3
49708.6
47361.9
43164
37788.3
32168.9
27751.4
23040
18412.6
14620
11519.2
10844.5
10384.9
9988.55
10072.1
8783.13
5659.14
2150
-1.40168e+06
-1.40694e+06
-1.40837e+06
-1.40914e+06
-1.40972e+06
-1.40914e+06
-1.40883e+06
-1.40812e+06
-1.40518e+06
-1.4003e+06
-1.39306e+06
-1.3835e+06
-1.37339e+06
-1.34439e+06
-1.28036e+06
-1.2042e+06
-1.14137e+06
-1.10386e+06
-1.07404e+06
-1.03279e+06
-987583
-938324
-908605
-891223
-873012
-860746
-838661
-793737
-710765
-603223
-497124
-421306
-399892
-402810
-372210
-301584
-204027
-101580
-29707.4
-6188.73
-13945.3
-20516.7
-15662.2
-14592.8
-3261.21
33952.6
67974.6
67664
69280.8
82860.7
92514.2
105920
118617
125314
128913
129721
129612
126506
123560
119771
114810
109147
101397
95806.6
91226.1
85859
79362.1
75546.1
73152.6
70215.4
67460.1
66380.6
66335.5
65867.8
64598.7
62587.1
59478.9
56546.3
53855.6
51831.8
50751.3
49709.3
49877.4
49774.1
47300.5
43079.6
37639.7
32124.7
27733.6
22979
18301.3
14388.8
11331
10796.9
10500.6
10163.5
10232.9
8982.27
5664.97
1994.92
-1.40144e+06
-1.40739e+06
-1.40841e+06
-1.40892e+06
-1.4096e+06
-1.40911e+06
-1.40882e+06
-1.4079e+06
-1.40509e+06
-1.40022e+06
-1.39304e+06
-1.38448e+06
-1.37519e+06
-1.34621e+06
-1.28012e+06
-1.20368e+06
-1.14332e+06
-1.10737e+06
-1.07666e+06
-1.03432e+06
-989285
-940551
-906414
-890267
-874490
-864380
-843531
-798754
-711788
-601628
-496629
-418226
-401055
-406206
-378007
-304435
-201257
-97074.1
-24234.6
-184.208
-10848.6
-21142.7
-16590
-15800
-5084.9
35390.5
75352
74270.1
70814.4
84250.3
92800.4
106699
118820
125201
129028
129889
129932
126615
123549
119833
115070
109012
101489
96134
91297.6
85774.8
79343.3
75516.5
73214.1
70177.2
67467.6
66441.8
66343.3
65875
64597.9
62393.9
59330.8
56372.4
53706.7
51737.5
50728.8
49837
50062.6
49886.1
47309.6
42966.4
37475.8
31968.7
27707.9
22934.5
18212.8
14081
11018.5
10763.6
10663.2
10493.2
10415.9
9261.57
5724.34
1854
-1.40114e+06
-1.40792e+06
-1.40863e+06
-1.40884e+06
-1.40939e+06
-1.40908e+06
-1.40885e+06
-1.40784e+06
-1.40512e+06
-1.40032e+06
-1.3933e+06
-1.38589e+06
-1.37712e+06
-1.34864e+06
-1.27963e+06
-1.20397e+06
-1.14597e+06
-1.112e+06
-1.07958e+06
-1.03548e+06
-990816
-943411
-904972
-888650
-876158
-868682
-847122
-802553
-715602
-605763
-501896
-416105
-402527
-409732
-382628
-307621
-199039
-92161.2
-20447.1
4686.79
-9681.37
-22910.2
-17466
-17002.8
-6231.9
34500.7
80189
81259.8
71317.2
83790.2
92768.9
107948
119387
125702
129011
130037
130497
126906
123677
119864
115103
109365
101967
96221.7
91009.7
85973.5
79577.7
75615.1
73211.7
70246.5
67719.1
66456
66365.1
65975
64506.1
62225.7
59127.9
56189.6
53531
51616.7
50725.5
49947.2
50396.8
50065.3
47132.5
42846.9
37319.1
31813.2
27610.4
22994.2
18115.9
13693.7
10710.4
10714.9
10830.7
10850.2
10760.6
9575.38
5847.13
1613.28
-1.40081e+06
-1.4085e+06
-1.40894e+06
-1.40879e+06
-1.40921e+06
-1.4091e+06
-1.40897e+06
-1.40814e+06
-1.40518e+06
-1.40042e+06
-1.39385e+06
-1.38778e+06
-1.37923e+06
-1.35148e+06
-1.27947e+06
-1.20483e+06
-1.14949e+06
-1.11708e+06
-1.08291e+06
-1.03698e+06
-990083
-944560
-905661
-889452
-878815
-872910
-849769
-804606
-721138
-618636
-515329
-419022
-402424
-412705
-385813
-311914
-199047
-88615.5
-19160.5
6255.56
-11241.6
-25678.4
-18347.8
-17606.2
-7990.26
32300.4
82865.8
88199.3
69992.6
81963.9
93423.4
108915
120495
126323
129050
130590
130918
127348
123944
119847
115186
109790
102421
96260.5
90906.3
85978.3
79694.3
75703.3
73427.7
70446.2
68104.4
66581
66318.6
66030.8
64451.2
62058
58950
56011.9
53353.2
51507.4
50702.4
50089.3
50608.5
50164.1
46953.6
42595.7
37309.8
31944
27288.1
22919.9
18065.7
13342.2
10599.4
10527.2
10967
11248.5
11213.1
9983.38
5881.21
1360.34
-1.40049e+06
-1.40902e+06
-1.40918e+06
-1.40893e+06
-1.40913e+06
-1.4092e+06
-1.40919e+06
-1.40839e+06
-1.4055e+06
-1.40053e+06
-1.39439e+06
-1.38973e+06
-1.3815e+06
-1.35452e+06
-1.27928e+06
-1.20581e+06
-1.15373e+06
-1.12155e+06
-1.08661e+06
-1.03913e+06
-989856
-942952
-908322
-892109
-882369
-877935
-850540
-803128
-735497
-656994
-518651
-415557
-398587
-415244
-392523
-318594
-201176
-88360.7
-20384.7
3732.63
-14298.4
-28194.9
-18813.9
-17465.3
-8358.94
29288.1
82069
96028
65652.7
79509.6
94016.5
109817
122222
126659
129496
131487
131297
127826
124309
119863
115560
109844
102750
96384.5
90900.1
86007.9
79742.2
75883.7
73768.4
70831.2
68334.1
66686.2
66345.2
66141.3
64443.8
61924.9
58787.8
55842.5
53243
51358.7
50630.8
50170.6
50724.9
50198.8
46760.2
42318.1
37256.6
32214.9
27348.5
22629.6
18047.8
12990.1
10204.8
10522.1
11146.6
11755.8
11701.6
10358.7
5861.93
1019.13
-1.40037e+06
-1.40945e+06
-1.40926e+06
-1.40904e+06
-1.40931e+06
-1.40935e+06
-1.40947e+06
-1.40879e+06
-1.40592e+06
-1.40073e+06
-1.39476e+06
-1.39164e+06
-1.3838e+06
-1.35708e+06
-1.27955e+06
-1.20708e+06
-1.15866e+06
-1.12598e+06
-1.08936e+06
-1.03934e+06
-990682
-940851
-911942
-897247
-888916
-879897
-847946
-799816
-763244
-698524
-508902
-401046
-398670
-418050
-398916
-326586
-207661
-91476.7
-23204.7
-876.998
-17225.5
-30261.5
-18500.1
-15690.5
-7155.79
25606.7
78302
102112
59056.3
75916.7
94214.4
111250
123793
127603
130844
132095
131705
128469
124777
120272
115674
109958
102987
96491.5
90886.9
86021.7
79948.8
76188.1
74052.6
71141.3
68526.5
66849.5
66422.6
66207.7
64551.3
61826.6
58666.8
55753.1
53107.3
51326.6
50592
50140.3
50673.5
50118.2
46573.7
42195.4
37199.7
32354.9
27672.6
22604.4
17877.9
12720.1
9993.23
10406
11378.4
12281.3
12120.2
10767.5
5646.58
633.57
-1.40021e+06
-1.40991e+06
-1.40928e+06
-1.40911e+06
-1.40955e+06
-1.40966e+06
-1.40979e+06
-1.40916e+06
-1.4064e+06
-1.40094e+06
-1.39508e+06
-1.39363e+06
-1.38614e+06
-1.3591e+06
-1.27999e+06
-1.20938e+06
-1.16317e+06
-1.1302e+06
-1.09084e+06
-1.03894e+06
-990124
-943038
-916896
-903601
-892378
-875599
-841573
-796782
-801687
-734204
-502261
-385589
-401594
-422020
-407397
-339277
-217182
-96885.8
-26909.2
-4855.8
-19602.4
-30922.5
-16824.6
-12973.9
-5013.09
21636
73169.9
102637
53613.8
71019.4
93756.3
113300
125038
129542
132623
132909
132259
129239
125423
120818
115756
110136
103290
96572.5
90941.1
86051.3
80431.1
76407.9
74111.3
71385.2
68728.6
66910.5
66703.1
66386.8
64634
61790.1
58609.4
55717.1
53045.8
51207.5
50565.6
50037.9
50414.4
49890.2
46404.5
41969
37378.9
32631.4
28026.1
22874.8
17835.7
12522.3
9781.56
10324
11634.3
12690.2
12584.9
11254.7
5404.15
168.073
-1.40005e+06
-1.41032e+06
-1.40937e+06
-1.40916e+06
-1.40979e+06
-1.40994e+06
-1.41008e+06
-1.40955e+06
-1.4067e+06
-1.4011e+06
-1.39535e+06
-1.39535e+06
-1.38868e+06
-1.36065e+06
-1.27996e+06
-1.21061e+06
-1.16719e+06
-1.13377e+06
-1.09236e+06
-1.04053e+06
-988271
-948114
-921465
-907898
-893345
-868497
-833892
-800199
-842674
-757966
-494732
-370790
-401284
-425100
-415042
-357268
-232181
-103605
-30216.5
-7723.17
-21761.8
-30202
-14722.7
-9803.01
-2788.62
17930.1
68094.3
96964.5
52941.7
62563.7
92309.5
115821
126567
132067
134519
134345
133175
129783
126127
121350
115833
110365
103625
96675.4
91003.2
86191
80895.4
76591.7
74204.1
71701.3
68906.7
66936.1
67034.8
66652.4
64709.1
61836.7
58605.2
55764.6
53010.6
51082.7
50427.3
49773.5
49997.5
49484.8
46134.9
41701.8
37540.7
33040.1
28198.1
23158.1
18075.5
12440.9
9594.64
10378.2
11958.6
13058.2
13144.4
11717.8
5179.83
-197.029
-1.40004e+06
-1.41073e+06
-1.40949e+06
-1.40909e+06
-1.40977e+06
-1.41008e+06
-1.41018e+06
-1.40981e+06
-1.40691e+06
-1.40097e+06
-1.39567e+06
-1.39664e+06
-1.3917e+06
-1.36226e+06
-1.27855e+06
-1.21201e+06
-1.17059e+06
-1.13648e+06
-1.09348e+06
-1.04319e+06
-989910
-950667
-925807
-911913
-892828
-860306
-826735
-812321
-880859
-772964
-493975
-370619
-402242
-422045
-415065
-370649
-246777
-112261
-33294.3
-8941.98
-24047.9
-28432.3
-12776.6
-7015.69
-1056.54
14801.7
62861.7
89089
54352.1
51395.1
90530.9
117810
129047
134924
136774
136019
133845
130613
126932
121971
116013
110624
103986
96791
91095.3
86372.7
81349.6
76764.5
74308.1
72119.2
69068
66944.7
67316.6
66938
64909.2
61923.1
58683.4
55851.9
53008.1
50908.3
50066.9
49275.5
49393.8
48887.2
45852.1
41457.1
37483.1
33206.8
28562.8
23615.9
18363.9
12480.6
9738.85
10552.9
12301.3
13540.4
13676.7
12201.6
5079.4
-580.337
-1.40018e+06
-1.41115e+06
-1.4096e+06
-1.40898e+06
-1.40953e+06
-1.40986e+06
-1.41006e+06
-1.40991e+06
-1.40677e+06
-1.40077e+06
-1.39588e+06
-1.39726e+06
-1.39495e+06
-1.36375e+06
-1.27773e+06
-1.21276e+06
-1.17295e+06
-1.1398e+06
-1.09609e+06
-1.04503e+06
-990505
-952572
-931007
-917107
-890792
-852311
-820414
-826912
-906894
-781200
-496718
-382499
-411425
-418480
-408044
-370343
-255914
-116745
-34394.1
-9423.43
-26030.2
-26138.9
-11428.1
-5074.47
692.189
12981.2
58076.7
79890.3
53321.2
40335.5
88879.9
119588
132234
138136
139368
137415
134807
131678
127892
122669
116274
110916
104356
96871.4
91164.3
86578.6
81766.2
76950.7
74543.4
72436.6
69191
67057.8
67402.6
67077.6
65237.4
62111.7
58818.3
55953.5
52969.7
50691.9
49506.9
48467.4
48501.3
47990.4
45474.8
41174.1
37196.8
33485.9
29071.6
24060.8
18778.3
12775.1
10033.9
10829.8
12740.4
14042.6
14175.7
12664
4995.58
-868.113
-1.40031e+06
-1.41144e+06
-1.40962e+06
-1.40886e+06
-1.40941e+06
-1.40955e+06
-1.40971e+06
-1.40969e+06
-1.40642e+06
-1.40048e+06
-1.39572e+06
-1.39774e+06
-1.39845e+06
-1.36565e+06
-1.27671e+06
-1.21177e+06
-1.17434e+06
-1.14025e+06
-1.10082e+06
-1.04553e+06
-989286
-954427
-937848
-922186
-890043
-845487
-813475
-836676
-916073
-803924
-500046
-404431
-423292
-415749
-396881
-357684
-255632
-118133
-35369.9
-9746.16
-26572.6
-25154.7
-10914
-3837.89
3050.6
12992
53508.9
70080.6
49415.1
30365.7
87360.5
120889
135974
141699
141914
139232
136011
132851
128968
123030
116829
111394
104798
96935.2
91218.1
86900.2
81871.8
77319.6
74832.9
72619.8
69391.1
67124.9
67250.4
67312.3
65689.1
62402.2
58972.4
56087.9
53042.3
50206.9
48606.2
47590.5
47500.2
46847.8
44892.5
40852.6
37194.7
33811
29304.5
24569.5
19334.2
13266.2
10418.2
11249.5
13213.6
14534.6
14580
12964.9
5051.15
-928.805
-1.40037e+06
-1.41164e+06
-1.40961e+06
-1.40871e+06
-1.40918e+06
-1.40908e+06
-1.4091e+06
-1.40919e+06
-1.40595e+06
-1.39985e+06
-1.39542e+06
-1.39816e+06
-1.40191e+06
-1.36882e+06
-1.2735e+06
-1.20979e+06
-1.17653e+06
-1.14148e+06
-1.10324e+06
-1.04392e+06
-988683
-957067
-945878
-927690
-890144
-839050
-807534
-844323
-909363
-838937
-512309
-428960
-435283
-416874
-388006
-340457
-248080
-118916
-39509.9
-13140.8
-27253.6
-26102.4
-10123.9
-1691.16
6537.51
14797.9
49596.7
60676.2
44147.4
25105.9
84500.3
123035
139739
145063
145133
141528
137346
134064
129751
123679
117506
111964
105336
97035.5
91262.6
87236.9
82193.1
77492.6
74859.1
73017.5
69614.3
67038.8
67114.5
67455.6
66193.1
62835.6
59141.1
56206.2
53108.9
49670.3
47543.4
46600
46458.7
45689.4
44106.1
40877.9
37476.9
34001.7
29507.8
25022.6
19907.1
13898.9
10950.7
11715.4
13729.1
14917
14830.8
13256.6
5294.4
-879.219
-1.40051e+06
-1.41182e+06
-1.40953e+06
-1.40844e+06
-1.40883e+06
-1.40857e+06
-1.4086e+06
-1.40846e+06
-1.40536e+06
-1.39915e+06
-1.39453e+06
-1.39813e+06
-1.40533e+06
-1.37123e+06
-1.26942e+06
-1.20862e+06
-1.17493e+06
-1.14701e+06
-1.10148e+06
-1.03832e+06
-987799
-962491
-953140
-932191
-891182
-833033
-802115
-848452
-898396
-834712
-547228
-459277
-446364
-421601
-386400
-327594
-237934
-120783
-46637.9
-21038.4
-32805
-28596.5
-8518.54
2117.16
10943.1
18351.5
47598.1
54865.2
39341.3
23445
81568.3
125456
143568
148732
148272
144398
138877
134961
130887
124469
118179
112619
105643
97493.2
91608.7
87361.4
82282
77794.5
74842.9
73169.5
69973.6
66896
66926.7
67566.9
66585.5
63424.1
59581.6
56350.7
52988.2
49004
46356.2
45364.6
45300.2
44491.1
43128.9
40789.2
37687.3
34071.8
29769.1
25459.3
20612.9
14641.5
11405.1
12136.9
14184.6
15214.5
14907.9
13462.3
5817.34
-610.625
-1.4007e+06
-1.41206e+06
-1.40947e+06
-1.40821e+06
-1.40848e+06
-1.40811e+06
-1.40793e+06
-1.40747e+06
-1.40461e+06
-1.39838e+06
-1.39332e+06
-1.39739e+06
-1.40729e+06
-1.37352e+06
-1.26466e+06
-1.20864e+06
-1.17323e+06
-1.15312e+06
-1.09824e+06
-1.03456e+06
-988673
-969312
-960234
-936821
-893433
-829596
-797094
-843379
-892616
-803753
-577976
-485534
-461857
-431944
-391472
-320724
-229794
-125350
-54874
-29975
-42950.4
-32723
-5585.13
7627.36
16041.4
23163
49125.7
55439.9
34359.7
25162.7
78439.8
128369
148374
153054
151312
146889
140787
136418
131898
125225
118827
113000
105940
98187.2
92167.5
87462.9
82285.1
77826.6
74994.5
73169.8
70131.5
66820.7
66684.5
67552.3
66910
64098.9
60244.6
56667.7
52955.4
48277.8
45146.9
43824.1
43988
43273.4
42227.7
40561.3
37594.4
34060.1
30030.4
25901.8
21268.1
15362.4
11803.6
12339.9
14491.9
15309.8
14916.4
13807.9
6415.19
-186.412
-1.40098e+06
-1.41241e+06
-1.40954e+06
-1.40805e+06
-1.40791e+06
-1.40747e+06
-1.407e+06
-1.40658e+06
-1.40382e+06
-1.39707e+06
-1.39127e+06
-1.39607e+06
-1.40847e+06
-1.37567e+06
-1.26046e+06
-1.20756e+06
-1.17586e+06
-1.15344e+06
-1.09233e+06
-1.03267e+06
-990970
-976972
-967562
-942843
-893052
-827439
-798107
-840012
-880182
-773729
-580128
-497956
-475705
-446299
-402425
-318245
-220153
-134070
-64069.4
-37972.6
-53807.8
-37611.6
-392.11
15022.8
22640.3
28606
54527.8
59366.6
30457.4
31924.2
76329.9
132462
153204
157757
155063
149096
142641
138006
132909
125938
119441
113366
106211
98821.7
92739.6
87635.2
82129.7
77960.9
75459.7
73228
69862.8
66572.7
66367
67413.3
67120.7
64638.5
61035
57232.5
53015.4
47696.3
43963.7
42402.3
42547
42057.9
41496.8
40385.5
37433.4
34018.1
30242.9
26252.8
21745.8
16021.4
12154.7
12354.5
14642.9
15091.6
14948.2
14354.3
7163.89
373.223
-1.40119e+06
-1.41264e+06
-1.40933e+06
-1.40765e+06
-1.40734e+06
-1.40703e+06
-1.40612e+06
-1.40558e+06
-1.40286e+06
-1.39573e+06
-1.38913e+06
-1.39406e+06
-1.40806e+06
-1.37688e+06
-1.25824e+06
-1.20409e+06
-1.18275e+06
-1.15078e+06
-1.08748e+06
-1.0311e+06
-994764
-984839
-974595
-945045
-891453
-824456
-804068
-840470
-870346
-758540
-573344
-503226
-481567
-455374
-415315
-318403
-211673
-145650
-72503.8
-44695.3
-63068.7
-43591.8
6687.16
24028.2
30459.3
35650
61974.8
60590.7
29394.9
42078.8
75655.2
135935
158046
162561
158585
151655
144584
139576
134000
126666
120069
113791
106490
99391.4
93336.2
87577.4
82084.6
78355.1
76056.8
73081.1
69425.8
66181.4
65846.4
67197.5
67149.3
65003.9
61767.1
57957.9
53183.3
47217.8
42913.1
41192
41231.4
40857.2
40902.6
40203.9
37321.6
33991.7
30426.5
26518.5
21999.7
16624.7
12410.5
12327.2
14657.6
14849.3
14940.6
15228.4
8030.03
1019.28
-1.40139e+06
-1.41288e+06
-1.40911e+06
-1.40729e+06
-1.40693e+06
-1.40637e+06
-1.4052e+06
-1.40469e+06
-1.40199e+06
-1.39405e+06
-1.38675e+06
-1.39162e+06
-1.40636e+06
-1.37728e+06
-1.25855e+06
-1.20138e+06
-1.19073e+06
-1.14762e+06
-1.08408e+06
-1.03012e+06
-999421
-994049
-981354
-944323
-888164
-820196
-809434
-841050
-863637
-750301
-569801
-508243
-486685
-462955
-424755
-319172
-211747
-155883
-79853.6
-52340.6
-70588.7
-49912.1
14693
32351.4
38022.1
44632.7
67944
57817.9
32726.4
48988.3
75052
138813
163029
167422
162077
153907
146804
141396
134875
127272
120949
114415
106859
99906.7
93545.4
87708.9
82464
78537.8
76232.9
73130.3
69024.8
65653.7
65239.7
66624.7
66859.5
64967.5
62413.6
58644.9
53603.3
46886.7
41973.2
40031.6
39988.2
40136.4
40570.7
39907.1
37155.3
33882.1
30546.7
26712.3
22108.3
17128.2
12607
12200.6
14644.8
14559.1
14887.2
16154.1
8973.99
1929.35
-1.40177e+06
-1.41325e+06
-1.40897e+06
-1.40673e+06
-1.40653e+06
-1.4057e+06
-1.40439e+06
-1.40387e+06
-1.40111e+06
-1.39254e+06
-1.38415e+06
-1.38896e+06
-1.40452e+06
-1.37787e+06
-1.26356e+06
-1.20096e+06
-1.19653e+06
-1.14538e+06
-1.0808e+06
-1.03029e+06
-1.00498e+06
-1.00208e+06
-985459
-944449
-882379
-817233
-812083
-842470
-860624
-741630
-569953
-511642
-486794
-467934
-429380
-320021
-219743
-168360
-88482
-61875.3
-76917.1
-54569.5
21097.1
38450.7
45188.4
55632.3
69588
56675.6
39695.5
50697
76211.2
141202
167942
172103
165625
156609
148721
142772
135973
128298
121773
114844
107432
100406
93618.2
87921.6
82858.6
78904.2
76356
72922.6
68470.7
65222.4
64643.4
65881.4
66109.5
64655
62917
59358.3
54190.5
46969.4
41292.7
38847.5
38487.5
39768.7
40496.2
39593.3
37050.7
33855.7
30598.1
26901.8
22247.6
17645.9
13115
12146.7
14522.4
14158.8
14864.5
17226.1
9894.53
2848.82
-1.40213e+06
-1.41343e+06
-1.40869e+06
-1.40631e+06
-1.40605e+06
-1.40505e+06
-1.40367e+06
-1.40294e+06
-1.4002e+06
-1.39126e+06
-1.38198e+06
-1.38646e+06
-1.40267e+06
-1.37677e+06
-1.27139e+06
-1.20366e+06
-1.19901e+06
-1.1437e+06
-1.0785e+06
-1.03063e+06
-1.01157e+06
-1.00933e+06
-986735
-943393
-878707
-818456
-814308
-843977
-854677
-731092
-571617
-513840
-481706
-465430
-431027
-320565
-235801
-186774
-97324.4
-70041.6
-81364.4
-54386.2
25436.8
41033.4
50938.7
66223.7
69412
58932.2
47467.4
51181.6
81280.9
143247
172815
176573
169140
159453
150918
144149
136802
129195
122536
115207
108008
100824
93945.9
88133.7
82815.2
79162.4
76597.4
72758.6
67708.1
64513.2
64043.3
65164.7
64809.1
64074.8
63349.5
60198.4
54927.5
47630.2
40761.4
37646.7
36975.9
39338.7
40277.6
39290.4
36939.2
33933.6
30706.8
27072.2
22496.3
18260.7
13973.2
12380.9
14311.4
13697.6
14651.1
18004.5
10906.8
3812.57
-1.40236e+06
-1.41354e+06
-1.40851e+06
-1.40586e+06
-1.40556e+06
-1.40444e+06
-1.40289e+06
-1.4021e+06
-1.39931e+06
-1.39016e+06
-1.38048e+06
-1.38444e+06
-1.4007e+06
-1.37506e+06
-1.28146e+06
-1.21156e+06
-1.19876e+06
-1.14057e+06
-1.07694e+06
-1.03201e+06
-1.01739e+06
-1.01351e+06
-987361
-941877
-879052
-821176
-815962
-843670
-843435
-721546
-574861
-514655
-479121
-462151
-434069
-325008
-253600
-204005
-107307
-70803.2
-80717.7
-47124.3
31126.1
42054.8
52699
73673.2
70647.2
58936.1
53545.7
53538.3
90792.9
144075
177756
180754
172479
162394
152910
145477
137770
129955
123049
115764
108653
101194
94383
88184.5
82912.7
79270.7
76586.1
72804.8
67308.4
63625.8
63152.8
64346.7
63431
63220.6
64041.9
61419.5
55816
48714.7
40411.3
36301.4
35405
38581.3
39993.7
39038.1
36881
34046.8
30859.4
27370.4
22883.5
19000.8
15105.7
12803.3
14209.6
12967.3
14436.2
18445.7
12062.6
4738.89
-1.4026e+06
-1.41346e+06
-1.40824e+06
-1.40551e+06
-1.40513e+06
-1.40383e+06
-1.40214e+06
-1.40127e+06
-1.39854e+06
-1.38922e+06
-1.37938e+06
-1.38284e+06
-1.39794e+06
-1.3732e+06
-1.29022e+06
-1.22499e+06
-1.20004e+06
-1.13724e+06
-1.07587e+06
-1.03384e+06
-1.02284e+06
-1.01478e+06
-986921
-940446
-881029
-826322
-818739
-838454
-826207
-709965
-578986
-518321
-482622
-460408
-429873
-322846
-258804
-207572
-114848
-61891.9
-68930.5
-27168.8
41096.8
44023.8
52444.8
78356.2
71707.9
54881.7
57885
58293.7
99244.2
144178
181774
184559
175759
164850
154868
146825
138699
130589
123441
116438
109272
101679
94613.9
88329.6
83333.2
79557.2
76366.9
72807.3
67111
62807.1
62482
63095
62368.2
62658.1
65293.6
62882.6
56836.4
49702.2
40624.1
34709.1
33790.5
37433.6
39531.8
38890.9
36947.3
34216.7
31035.2
27658.5
23442
19933.3
16320.8
13245.5
14383.3
12329.4
14286.6
18745.4
13307
5549.01
-1.40278e+06
-1.41327e+06
-1.40793e+06
-1.40532e+06
-1.40486e+06
-1.40304e+06
-1.40138e+06
-1.40051e+06
-1.39776e+06
-1.3884e+06
-1.37837e+06
-1.38129e+06
-1.39345e+06
-1.37113e+06
-1.29877e+06
-1.24093e+06
-1.20289e+06
-1.13622e+06
-1.07541e+06
-1.03497e+06
-1.02732e+06
-1.01514e+06
-983350
-939161
-883826
-832250
-820891
-829716
-807992
-699715
-583803
-525285
-490545
-460848
-419577
-316215
-257904
-207725
-114580
-48950.2
-47198
-413.986
53622.2
45628.9
51585.1
80031.8
70822.5
51899.8
61645.1
65614.5
102641
146278
185301
188044
178758
167008
156698
148141
139573
131030
123812
117077
109908
101933
94832.6
88681.9
83682.5
79777
76420.4
72828.7
66924.7
62723.3
62131.8
61632.9
61463.8
62695
66522.9
64447.7
57839.1
50137.3
40836.4
33148.9
32233.2
36122.3
38929.8
38791.1
37077.2
34397.3
31163.6
27787.2
23892
20780.7
17365.4
13711
14697.2
11832.6
14371.8
19111.5
14485.7
6104.79
-1.40291e+06
-1.41297e+06
-1.40769e+06
-1.40507e+06
-1.40464e+06
-1.40247e+06
-1.40047e+06
-1.3997e+06
-1.39714e+06
-1.38757e+06
-1.37735e+06
-1.37943e+06
-1.38764e+06
-1.36931e+06
-1.30864e+06
-1.25816e+06
-1.20873e+06
-1.13622e+06
-1.07568e+06
-1.03585e+06
-1.029e+06
-1.01454e+06
-977842
-935279
-884993
-837962
-822008
-820859
-793016
-692005
-589016
-537504
-504887
-465365
-410937
-317270
-257395
-207347
-111830
-46379.5
-35842.3
14378.1
59571.2
46809.5
50328.6
79118.7
68547.7
51585.5
64464.7
75551.8
104735
150683
188281
191676
181022
168978
158698
149364
140396
131447
124145
117717
110346
102128
95029.8
89078.6
83968
79702.3
76540.8
73095.2
66679.6
63008
61986.3
60658.2
60364.7
63528.7
67871.4
66142.3
58737.8
50409.1
40416.1
31719.5
30831.7
34810.8
38265.6
38757.5
37251.7
34484.3
31178.3
27855.7
24226.4
21319.4
18216.1
14467.8
14952.3
11426.1
14727.8
19602.4
15590.9
6519.28
-1.4029e+06
-1.41258e+06
-1.4076e+06
-1.40487e+06
-1.40419e+06
-1.40197e+06
-1.39963e+06
-1.39882e+06
-1.39644e+06
-1.38668e+06
-1.37629e+06
-1.37731e+06
-1.38182e+06
-1.36743e+06
-1.32017e+06
-1.27552e+06
-1.2151e+06
-1.13715e+06
-1.07554e+06
-1.03479e+06
-1.02923e+06
-1.01358e+06
-971431
-928952
-885348
-843262
-822488
-813748
-782116
-687945
-594347
-551506
-519939
-471279
-407290
-321883
-258981
-206825
-114977
-49149.7
-31975.8
20730.8
59268
46349.6
48472.2
76661.3
65784.4
53223.9
67331.1
83298.9
108285
156813
190716
194653
182756
171081
160563
150518
141057
131721
124448
118312
110656
102329
95309.8
89268.2
84047
79783.1
76875.8
73388.6
66656.9
63296.2
61472.7
60043.8
59158.6
64870.2
69518.6
67565.6
59570.5
50592.3
39354.2
30384.7
29622.9
33667.9
37626.9
38741.9
37373.4
34418.8
31175.5
27976.2
24369.6
21656.7
19110.4
15460.6
15156.3
11447.7
15230.6
20200.2
16649.3
6745.23
-1.40277e+06
-1.41208e+06
-1.40751e+06
-1.4047e+06
-1.40365e+06
-1.40131e+06
-1.39896e+06
-1.39809e+06
-1.39564e+06
-1.38576e+06
-1.37527e+06
-1.37496e+06
-1.37717e+06
-1.36574e+06
-1.33039e+06
-1.29113e+06
-1.22124e+06
-1.13832e+06
-1.07413e+06
-1.03186e+06
-1.02877e+06
-1.01311e+06
-965603
-921969
-885196
-848195
-823860
-809342
-775830
-687612
-598912
-565211
-534138
-477662
-407046
-326489
-263348
-204897
-117745
-54633.9
-30726.5
25101.7
57864.6
44267
47483.6
74251.3
63357.8
55231.9
69106.1
87979.3
114764
161770
192879
197352
184768
172992
162114
151733
141647
131718
124579
118869
111032
102548
95707.3
89401.6
84051
80019.9
77281.7
73698.5
67061.7
63945.2
60860.2
59253.3
58476.2
66208.7
70820.1
68497.3
60510.9
50941.2
37848.5
29191
28688.9
32690.8
37061.2
38695.7
37393
34328.8
31088
28140.7
24441.7
21950.1
20114.7
16625.6
15331.2
11724.2
15780.8
20863.3
17806
6922.13
-1.4025e+06
-1.41157e+06
-1.40738e+06
-1.40446e+06
-1.40321e+06
-1.40055e+06
-1.39829e+06
-1.39752e+06
-1.39491e+06
-1.38488e+06
-1.37456e+06
-1.37271e+06
-1.3731e+06
-1.36376e+06
-1.33812e+06
-1.30298e+06
-1.22572e+06
-1.13867e+06
-1.07144e+06
-1.02807e+06
-1.02889e+06
-1.01376e+06
-959161
-914298
-884382
-852702
-826387
-807566
-773304
-690130
-602945
-577187
-546678
-484115
-408579
-331271
-266967
-204451
-124397
-62406.8
-25661.3
25740
55380.5
45421.2
47134.3
72306.6
61647.4
56345.2
70005.3
93272.3
122883
164258
196059
200314
186839
174638
163615
152724
142118
131756
124620
119411
111514
102938
96164.6
89543.3
84016.4
80250.1
77712.4
74238.7
67941
64871.9
60856
58160.7
58550.5
66881.8
71401.9
69155.9
61239
51423.4
37236.7
28441.4
28048.4
31973.2
36615.5
38602
37416
34139.9
30936.3
28168.4
24572.9
22295.7
21027.9
17876.3
15412.4
12419
16460.7
21564.1
19040
7187.5
-1.40212e+06
-1.41111e+06
-1.40725e+06
-1.40405e+06
-1.40287e+06
-1.39997e+06
-1.39763e+06
-1.3969e+06
-1.39431e+06
-1.38419e+06
-1.37396e+06
-1.37079e+06
-1.36953e+06
-1.36075e+06
-1.34304e+06
-1.31034e+06
-1.22737e+06
-1.13789e+06
-1.06876e+06
-1.02528e+06
-1.02987e+06
-1.01572e+06
-953459
-905898
-882831
-856728
-829932
-808254
-773203
-693706
-606745
-587062
-556835
-489640
-411007
-335970
-270509
-206107
-131604
-70221.2
-20764.3
24722.7
49104.9
46793.6
45919.3
70394
61823.4
57105.2
71431.4
99371.8
128555
167562
199660
203085
188435
175748
164828
153429
142300
131545
124540
119682
112051
103601
96705.3
89562.5
83950.1
80437.6
78172.9
74846.3
69280.4
65991.7
61600.1
57001.5
58771.4
66938.5
71470
69448.6
61560.7
51830.9
37872.8
28330.4
27592.8
31413.9
36274.4
38538.9
37421.6
33948.9
30696.8
28271
24713
22411
21840.2
18980.9
15411.6
13438.9
17256.2
22374.1
20412.8
7470.89
-1.40173e+06
-1.41059e+06
-1.40714e+06
-1.40358e+06
-1.40243e+06
-1.39958e+06
-1.39708e+06
-1.39621e+06
-1.39373e+06
-1.38375e+06
-1.37377e+06
-1.36942e+06
-1.36637e+06
-1.35668e+06
-1.34616e+06
-1.31363e+06
-1.22575e+06
-1.13564e+06
-1.06648e+06
-1.02473e+06
-1.0327e+06
-1.01813e+06
-949903
-898291
-880543
-860038
-834342
-811145
-774233
-695938
-609776
-594523
-564190
-493783
-413602
-340333
-274640
-209712
-139362
-78109.5
-20647.5
21871.4
42411.2
48325.8
44753.9
66739.2
62626
59027.9
75484.5
106592
133872
171640
202082
205849
189726
176478
165770
154168
142624
131234
124166
119691
112679
104212
97370.8
89515.5
83647.4
80727.5
78447
75174
70457
67019.5
62754.6
56204.8
58654.7
66965
71393.7
69397.7
61663.3
52146.5
38673.3
28573.6
27344.1
31075.5
35951.6
38443.6
37483.7
33925.5
30509.5
28222.5
24741.2
22302.1
22292.4
19950.3
15447.2
14647.3
18056
23195.2
22019.3
7818.55
-1.4014e+06
-1.40998e+06
-1.407e+06
-1.40317e+06
-1.40196e+06
-1.39928e+06
-1.39665e+06
-1.39555e+06
-1.3931e+06
-1.38336e+06
-1.37355e+06
-1.36842e+06
-1.36364e+06
-1.35274e+06
-1.34752e+06
-1.31471e+06
-1.22131e+06
-1.13202e+06
-1.06488e+06
-1.02609e+06
-1.03529e+06
-1.02291e+06
-948109
-890515
-877669
-863585
-839049
-815144
-776969
-695139
-609319
-595793
-567537
-496599
-416127
-344311
-279470
-215407
-147811
-86540.2
-25076.2
15238.9
36960.8
48466.6
44309.5
63329.4
64547.5
63199.3
81870.5
112355
140702
173300
202818
209219
191661
177472
167033
155315
143675
131260
123071
119406
113616
105082
97805.2
89377.3
82941.2
80601.9
78755.2
75556.9
71153.7
67950.2
63274.3
55871
58465.3
67085.8
71243.2
68939.7
61420.9
52330.5
39307.9
29022.3
27204
30953.1
35796.4
38255
37421.1
34032.6
30473.1
27961.2
24468.4
22169.9
22362.8
20613.1
15773.1
15886.1
18944.2
23946
23609
8434.01
-1.40111e+06
-1.40926e+06
-1.40685e+06
-1.40284e+06
-1.40153e+06
-1.39901e+06
-1.39635e+06
-1.39504e+06
-1.39239e+06
-1.38318e+06
-1.37348e+06
-1.36748e+06
-1.36112e+06
-1.35023e+06
-1.34632e+06
-1.31453e+06
-1.21505e+06
-1.12721e+06
-1.06588e+06
-1.02825e+06
-1.03409e+06
-1.02701e+06
-950171
-887091
-876164
-866198
-843225
-820848
-782869
-691457
-605378
-590873
-565260
-497849
-418900
-347995
-284863
-222976
-156988
-95608
-32610.1
5630.65
30784.1
47935.9
44847.5
62106.5
68653.4
69766.5
88286.8
117508
147686
174928
202461
212201
194959
178402
168908
157224
145176
131660
121310
118337
114583
106602
98506.8
89327.1
81847.8
79913.1
79073.9
76001.8
71637.8
68946.4
64149.3
55950.2
58235.5
67311.9
70950.2
67852.9
61034.2
52664.7
40070
29657.3
27279.5
30950.8
35832.6
38192.8
37135.1
33897.3
30603.7
27884.4
23984.4
21854.8