/*--------------------------------*- C++ -*----------------------------------*\
| =========                 |                                                 |
| \\      /  F ield         | foam-extend: Open Source CFD                    |
|  \\    /   O peration     | Version:     5.0                                |
|   \\  /    A nd           | Web:         http://www.foam-extend.org         |
|    \\/     M anipulation  |                                                 |
\*---------------------------------------------------------------------------*/
FoamFile
{
    version     2.0;
    format      ascii;
    class       volScalarField;
    location    "0.075";
    object      pd;
}
// * * * * * * * * * * * * * * * * * * * * * * * * * * * * * * * * * * * * * //

dimensions      [1 -1 -2 0 0 0 0];

internalField   nonuniform List<scalar> 
4000
(
-1.40214e+06
-1.40657e+06
-1.40863e+06
-1.40973e+06
-1.41021e+06
-1.40952e+06
-1.40941e+06
-1.40917e+06
-1.40605e+06
-1.40185e+06
-1.39474e+06
-1.38326e+06
-1.37073e+06
-1.34309e+06
-1.28278e+06
-1.20668e+06
-1.1394e+06
-1.09884e+06
-1.06962e+06
-1.029e+06
-983584
-932752
-909157
-894717
-867198
-850202
-830449
-785492
-712092
-612785
-504887
-426188
-402002
-393935
-358012
-294693
-208075
-111239
-40782.9
-12898.8
-13138.7
-17570.6
-11805
-10211.1
-1233.59
26393.5
50183.8
56183.2
63915.2
79061.5
90502
105639
119181
126982
129997
129668
129369
127709
124141
120158
115236
109464
102266
96303.7
91132.5
85959.9
79895.9
75865.6
73396.1
70144.1
67764
66684
66498.5
66046.1
64917.4
62925.8
59868.7
56877.8
54124.2
52007.7
50826.6
49820.1
49916.6
49850.1
47436.4
43378.4
37957.4
32141.8
27682.5
23052.8
18451.1
14642.3
11639.8
10684.7
10139.9
9988.23
10067.3
8622.89
5712.14
2380.06
-1.40209e+06
-1.40658e+06
-1.40849e+06
-1.40955e+06
-1.41006e+06
-1.40922e+06
-1.40904e+06
-1.40896e+06
-1.40572e+06
-1.40114e+06
-1.39416e+06
-1.3827e+06
-1.3705e+06
-1.3427e+06
-1.28182e+06
-1.20618e+06
-1.13964e+06
-1.09883e+06
-1.07037e+06
-1.03136e+06
-985831
-935021
-909523
-893490
-869031
-851045
-830647
-786767
-712176
-610511
-503983
-424840
-400257
-396408
-361948
-297103
-207335
-110484
-39895.5
-12969.1
-14538.4
-19305.6
-13558.5
-11811.4
-896.277
29121.7
54022.4
58787.8
65592.2
79810.8
90662.7
105183
118511
126167
129175
129317
129240
127217
123875
119909
114973
109223
101697
96244.6
91133.3
85906.4
79698.6
75691.1
73372.5
70079.9
67677.2
66582.7
66388.6
65909.7
64755.2
62811.8
59776.1
56798.2
54092.8
51977.4
50789.1
49719.1
49815.2
49744.9
47378.3
43271.5
37888.3
32162.1
27735.2
23061.7
18456.8
14725.8
11670.4
10791.7
10226
9965.73
10039.9
8675.07
5673.09
2278.93
-1.40187e+06
-1.40671e+06
-1.40847e+06
-1.40931e+06
-1.40987e+06
-1.40916e+06
-1.40891e+06
-1.40847e+06
-1.40541e+06
-1.40061e+06
-1.3934e+06
-1.38298e+06
-1.37169e+06
-1.34313e+06
-1.28092e+06
-1.20486e+06
-1.14019e+06
-1.10106e+06
-1.0715e+06
-1.03255e+06
-986863
-935810
-909642
-892310
-871428
-855939
-834326
-789936
-711158
-606871
-500935
-424407
-399670
-399603
-366849
-298627
-205939
-106944
-36112.7
-11017.6
-14944.8
-20466.9
-14423.3
-13357.2
-1793.52
31645.3
60281.5
62570.9
67346.8
81161.9
91204.5
105514
118584
125729
128810
129224
129378
126813
123709
119804
114820
109110
101487
95964.8
91092.7
85995.7
79439.2
75551.8
73233.8
70120.7
67579
66431.3
66358.1
65875.9
64643.1
62740.5
59599.3
56691.6
53979.1
51908.8
50768.3
49667.8
49809.8
49709.1
47362.4
43164.4
37788.7
32169.4
27751.9
23040.5
18413.1
14620.5
11519.7
10845
10385.3
9989.04
10072.6
8783.62
5659.63
2150.49
-1.40168e+06
-1.40694e+06
-1.40837e+06
-1.40914e+06
-1.40972e+06
-1.40914e+06
-1.40883e+06
-1.40812e+06
-1.40518e+06
-1.4003e+06
-1.39305e+06
-1.3835e+06
-1.37339e+06
-1.34439e+06
-1.28036e+06
-1.2042e+06
-1.14137e+06
-1.10386e+06
-1.07404e+06
-1.03279e+06
-987583
-938323
-908604
-891223
-873011
-860745
-838660
-793737
-710764
-603222
-497123
-421305
-399892
-402810
-372209
-301583
-204027
-101580
-29706.9
-6188.24
-13944.8
-20516.2
-15661.7
-14592.4
-3260.72
33953.1
67975.1
67664.5
69281.2
82861.2
92514.7
105920
118617
125315
128913
129721
129612
126506
123560
119772
114811
109148
101397
95807.1
91226.6
85859.5
79362.6
75546.6
73153.1
70215.9
67460.6
66381.1
66336
65868.2
64599.2
62587.6
59479.4
56546.8
53856
51832.3
50751.8
49709.8
49877.9
49774.6
47300.9
43080.1
37640.2
32125.2
27734.1
22979.5
18301.8
14389.3
11331.5
10797.4
10501.1
10164
10233.4
8982.76
5665.46
1995.41
-1.40144e+06
-1.40739e+06
-1.40841e+06
-1.40892e+06
-1.40959e+06
-1.40911e+06
-1.40882e+06
-1.4079e+06
-1.40509e+06
-1.40022e+06
-1.39304e+06
-1.38448e+06
-1.37519e+06
-1.34621e+06
-1.28012e+06
-1.20368e+06
-1.14331e+06
-1.10737e+06
-1.07666e+06
-1.03432e+06
-989284
-940550
-906414
-890266
-874489
-864379
-843531
-798753
-711788
-601628
-496628
-418225
-401055
-406206
-378006
-304434
-201257
-97073.6
-24234.1
-183.718
-10848.1
-21142.2
-16589.6
-15799.5
-5084.41
35391
75352.4
74270.6
70814.9
84250.7
92800.9
106700
118820
125201
129029
129890
129933
126616
123549
119833
115070
109013
101489
96134.5
91298.1
85775.3
79343.8
75517
73214.6
70177.7
67468.1
66442.3
66343.8
65875.5
64598.4
62394.4
59331.3
56372.9
53707.2
51738
50729.3
49837.5
50063.1
49886.6
47310.1
42966.8
37476.3
31969.2
27708.4
22935
18213.3
14081.5
11019
10764.1
10663.7
10493.7
10416.4
9262.06
5724.83
1854.49
-1.40114e+06
-1.40792e+06
-1.40863e+06
-1.40884e+06
-1.40939e+06
-1.40908e+06
-1.40885e+06
-1.40784e+06
-1.40512e+06
-1.40032e+06
-1.3933e+06
-1.38589e+06
-1.37712e+06
-1.34864e+06
-1.27963e+06
-1.20397e+06
-1.14597e+06
-1.112e+06
-1.07958e+06
-1.03548e+06
-990815
-943411
-904972
-888650
-876158
-868681
-847122
-802552
-715601
-605763
-501896
-416104
-402527
-409732
-382627
-307621
-199039
-92160.7
-20446.6
4687.28
-9680.88
-22909.7
-17465.5
-17002.3
-6231.4
34501.2
80189.5
81260.3
71317.7
83790.7
92769.4
107948
119388
125702
129011
130038
130498
126907
123678
119864
115103
109365
101967
96222.2
91010.2
85974
79578.2
75615.6
73212.2
70247
67719.6
66456.5
66365.6
65975.5
64506.6
62226.2
59128.4
56190.1
53531.4
51617.2
50726
49947.7
50397.3
50065.8
47133
42847.4
37319.6
31813.7
27610.9
22994.7
18116.4
13694.2
10710.9
10715.4
10831.2
10850.6
10761.1
9575.87
5847.63
1613.77
-1.40081e+06
-1.4085e+06
-1.40894e+06
-1.40879e+06
-1.40921e+06
-1.4091e+06
-1.40896e+06
-1.40814e+06
-1.40518e+06
-1.40042e+06
-1.39385e+06
-1.38778e+06
-1.37923e+06
-1.35148e+06
-1.27947e+06
-1.20483e+06
-1.14949e+06
-1.11708e+06
-1.08291e+06
-1.03698e+06
-990083
-944560
-905661
-889451
-878815
-872910
-849769
-804606
-721137
-618636
-515328
-419021
-402424
-412704
-385812
-311913
-199046
-88615.1
-19160
6256.05
-11241.1
-25677.9
-18347.3
-17605.7
-7989.77
32300.9
82866.3
88199.8
69993.1
81964.4
93423.9
108916
120496
126324
129050
130591
130918
127348
123945
119848
115187
109791
102422
96261
90906.8
85978.8
79694.8
75703.8
73428.2
70446.7
68104.9
66581.5
66319.1
66031.3
64451.7
62058.5
58950.5
56012.4
53353.7
51507.9
50702.8
50089.8
50609
50164.6
46954.1
42596.2
37310.3
31944.4
27288.6
22920.4
18066.1
13342.7
10599.9
10527.7
10967.5
11249
11213.6
9983.87
5881.7
1360.83
-1.40049e+06
-1.40902e+06
-1.40918e+06
-1.40893e+06
-1.40913e+06
-1.4092e+06
-1.40919e+06
-1.40839e+06
-1.4055e+06
-1.40052e+06
-1.39439e+06
-1.38973e+06
-1.3815e+06
-1.35452e+06
-1.27928e+06
-1.20581e+06
-1.15373e+06
-1.12155e+06
-1.08661e+06
-1.03913e+06
-989856
-942951
-908321
-892108
-882369
-877935
-850539
-803127
-735496
-656994
-518650
-415557
-398587
-415243
-392522
-318594
-201175
-88360.3
-20384.2
3733.12
-14297.9
-28194.4
-18813.4
-17464.8
-8358.45
29288.6
82069.5
96028.5
65653.2
79510.1
94017
109818
122223
126660
129497
131488
131297
127827
124309
119864
115560
109844
102750
96385
90900.6
86008.4
79742.7
75884.1
73768.9
70831.7
68334.6
66686.7
66345.7
66141.8
64444.2
61925.4
58788.3
55842.9
53243.4
51359.2
50631.3
50171.1
50725.4
50199.2
46760.7
42318.6
37257.1
32215.3
27349
22630.1
18048.3
12990.6
10205.2
10522.6
11147.1
11756.3
11702.1
10359.2
5862.43
1019.62
-1.40037e+06
-1.40945e+06
-1.40926e+06
-1.40904e+06
-1.40931e+06
-1.40935e+06
-1.40947e+06
-1.40879e+06
-1.40592e+06
-1.40073e+06
-1.39476e+06
-1.39164e+06
-1.3838e+06
-1.35708e+06
-1.27955e+06
-1.20708e+06
-1.15866e+06
-1.12598e+06
-1.08936e+06
-1.03934e+06
-990682
-940850
-911941
-897247
-888916
-879896
-847946
-799816
-763243
-698524
-508901
-401045
-398670
-418049
-398915
-326585
-207661
-91476.2
-23204.2
-876.508
-17225
-30261
-18499.6
-15690
-7155.3
25607.2
78302.5
102112
59056.8
75917.2
94214.9
111250
123793
127603
130844
132096
131706
128469
124778
120273
115674
109958
102987
96492
90887.4
86022.2
79949.3
76188.6
74053.1
71141.8
68527
66850
66423.1
66208.1
64551.8
61827.1
58667.3
55753.6
53107.7
51327.1
50592.5
50140.7
50674
50118.7
46574.2
42195.9
37200.2
32355.4
27673.1
22604.8
17878.4
12720.6
9993.72
10406.5
11378.9
12281.8
12120.7
10768
5647.07
634.061
-1.40021e+06
-1.40991e+06
-1.40928e+06
-1.40911e+06
-1.40955e+06
-1.40966e+06
-1.40979e+06
-1.40916e+06
-1.4064e+06
-1.40094e+06
-1.39508e+06
-1.39363e+06
-1.38614e+06
-1.3591e+06
-1.27999e+06
-1.20938e+06
-1.16317e+06
-1.1302e+06
-1.09084e+06
-1.03894e+06
-990123
-943038
-916896
-903600
-892377
-875598
-841572
-796782
-801686
-734203
-502260
-385588
-401593
-422020
-407396
-339276
-217182
-96885.3
-26908.7
-4855.31
-19601.9
-30922
-16824.1
-12973.4
-5012.6
21636.5
73170.4
102638
53614.3
71019.9
93756.8
113300
125039
129542
132624
132909
132259
129239
125423
120819
115756
110137
103291
96573
90941.5
86051.8
80431.6
76408.4
74111.8
71385.7
68729
66911
66703.6
66387.3
64634.5
61790.6
58609.9
55717.5
53046.3
51208
50566.1
50038.4
50414.9
49890.7
46405
41969.5
37379.4
32631.9
28026.6
22875.3
17836.2
12522.8
9782.05
10324.5
11634.8
12690.7
12585.4
11255.1
5404.64
168.563
-1.40005e+06
-1.41031e+06
-1.40937e+06
-1.40916e+06
-1.40979e+06
-1.40994e+06
-1.41008e+06
-1.40955e+06
-1.4067e+06
-1.4011e+06
-1.39535e+06
-1.39535e+06
-1.38868e+06
-1.36065e+06
-1.27996e+06
-1.21061e+06
-1.16719e+06
-1.13377e+06
-1.09236e+06
-1.04053e+06
-988270
-948114
-921464
-907898
-893344
-868496
-833892
-800199
-842673
-757965
-494732
-370790
-401284
-425100
-415042
-357268
-232181
-103604
-30216.1
-7722.68
-21761.4
-30201.5
-14722.2
-9802.52
-2788.13
17930.6
68094.8
96965
52942.2
62564.2
92310
115822
126567
132068
134520
134345
133176
129784
126128
121350
115833
110366
103626
96675.9
91003.7
86191.4
80895.9
76592.2
74204.6
71701.8
68907.2
66936.5
67035.3
66652.9
64709.6
61837.2
58605.7
55765.1
53011.1
51083.2
50427.8
49774
49997.9
49485.3
46135.4
41702.3
37541.2
33040.6
28198.6
23158.6
18076
12441.4
9595.13
10378.7
11959.1
13058.7
13144.9
11718.3
5180.32
-196.539
-1.40004e+06
-1.41073e+06
-1.40949e+06
-1.40908e+06
-1.40977e+06
-1.41008e+06
-1.41018e+06
-1.40981e+06
-1.40691e+06
-1.40097e+06
-1.39567e+06
-1.39664e+06
-1.3917e+06
-1.36226e+06
-1.27855e+06
-1.21201e+06
-1.17059e+06
-1.13648e+06
-1.09348e+06
-1.04319e+06
-989910
-950666
-925807
-911913
-892827
-860305
-826735
-812320
-880858
-772964
-493974
-370618
-402242
-422045
-415064
-370648
-246777
-112261
-33293.8
-8941.49
-24047.4
-28431.8
-12776.1
-7015.2
-1056.05
14802.2
62862.2
89089.5
54352.6
51395.6
90531.4
117811
129047
134925
136775
136019
133845
130613
126932
121971
116014
110624
103986
96791.5
91095.8
86373.2
81350.1
76765
74308.6
72119.7
69068.5
66945.2
67317.1
66938.5
64909.7
61923.6
58683.9
55852.4
53008.6
50908.8
50067.4
49276
49394.3
48887.6
45852.6
41457.6
37483.6
33207.3
28563.3
23616.3
18364.4
12481.1
9739.34
10553.4
12301.8
13540.9
13677.2
12202.1
5079.89
-579.846
-1.40018e+06
-1.41115e+06
-1.4096e+06
-1.40898e+06
-1.40953e+06
-1.40986e+06
-1.41006e+06
-1.40991e+06
-1.40677e+06
-1.40077e+06
-1.39588e+06
-1.39726e+06
-1.39495e+06
-1.36375e+06
-1.27773e+06
-1.21276e+06
-1.17295e+06
-1.1398e+06
-1.09609e+06
-1.04503e+06
-990504
-952571
-931007
-917107
-890791
-852310
-820413
-826911
-906893
-781199
-496718
-382498
-411425
-418479
-408043
-370343
-255914
-116744
-34393.6
-9422.94
-26029.7
-26138.4
-11427.6
-5073.98
692.68
12981.7
58077.2
79890.7
53321.6
40336
88880.4
119588
132235
138136
139369
137416
134808
131679
127893
122670
116275
110917
104357
96871.9
91164.8
86579.1
81766.7
76951.2
74543.9
72437.1
69191.5
67058.3
67403.1
67078.1
65237.9
62112.2
58818.8
55954
52970.2
50692.4
49507.4
48467.9
48501.8
47990.9
45475.3
41174.6
37197.3
33486.4
29072.1
24061.3
18778.8
12775.6
10034.4
10830.2
12740.9
14043.1
14176.2
12664.5
4996.07
-867.623
-1.40031e+06
-1.41144e+06
-1.40962e+06
-1.40886e+06
-1.40941e+06
-1.40955e+06
-1.40971e+06
-1.40969e+06
-1.40642e+06
-1.40048e+06
-1.39572e+06
-1.39774e+06
-1.39845e+06
-1.36564e+06
-1.27671e+06
-1.21177e+06
-1.17434e+06
-1.14025e+06
-1.10081e+06
-1.04553e+06
-989285
-954427
-937847
-922186
-890042
-845486
-813474
-836676
-916073
-803924
-500046
-404430
-423291
-415748
-396880
-357683
-255632
-118133
-35369.5
-9745.67
-26572.1
-25154.2
-10913.5
-3837.4
3051.09
12992.5
53509.4
70081.1
49415.5
30366.2
87361
120889
135974
141700
141914
139232
136012
132852
128969
123031
116830
111394
104799
96935.6
91218.6
86900.7
81872.3
77320.1
74833.4
72620.3
69391.6
67125.4
67250.8
67312.8
65689.5
62402.7
58972.9
56088.4
53042.8
50207.4
48606.7
47590.9
47500.7
46848.3
44893
40853
37195.2
33811.5
29305
24570
19334.7
13266.7
10418.7
11250
13214.1
14535.1
14580.5
12965.4
5051.64
-928.315
-1.40037e+06
-1.41164e+06
-1.40961e+06
-1.40871e+06
-1.40918e+06
-1.40908e+06
-1.4091e+06
-1.40919e+06
-1.40595e+06
-1.39985e+06
-1.39542e+06
-1.39816e+06
-1.40191e+06
-1.36882e+06
-1.2735e+06
-1.20979e+06
-1.17653e+06
-1.14148e+06
-1.10324e+06
-1.04392e+06
-988683
-957066
-945877
-927690
-890143
-839050
-807534
-844323
-909363
-838936
-512308
-428960
-435283
-416874
-388006
-340457
-248080
-118915
-39509.4
-13140.3
-27253.1
-26101.9
-10123.4
-1690.67
6538
14798.3
49597.2
60676.7
44147.9
25106.4
84500.8
123036
139740
145064
145133
141529
137347
134064
129751
123679
117507
111965
105337
97036
91263.1
87237.4
82193.5
77493.1
74859.6
73018
69614.7
67039.3
67115
67456.1
66193.6
62836.1
59141.6
56206.7
53109.4
49670.7
47543.9
46600.5
46459.2
45689.9
44106.6
40878.4
37477.4
34002.2
29508.3
25023.1
19907.6
13899.4
10951.2
11715.9
13729.6
14917.5
14831.3
13257.1
5294.89
-878.729
-1.40051e+06
-1.41182e+06
-1.40953e+06
-1.40843e+06
-1.40883e+06
-1.40857e+06
-1.4086e+06
-1.40846e+06
-1.40536e+06
-1.39915e+06
-1.39453e+06
-1.39812e+06
-1.40533e+06
-1.37123e+06
-1.26942e+06
-1.20862e+06
-1.17493e+06
-1.14701e+06
-1.10148e+06
-1.03832e+06
-987798
-962491
-953139
-932191
-891181
-833033
-802114
-848451
-898396
-834712
-547227
-459277
-446363
-421600
-386399
-327593
-237934
-120782
-46637.4
-21037.9
-32804.5
-28596
-8518.05
2117.65
10943.6
18352
47598.6
54865.7
39341.8
23445.5
81568.8
125456
143569
148732
148273
144399
138878
134961
130887
124469
118180
112620
105644
97493.7
91609.2
87361.9
82282.5
77795
74843.4
73170
69974
66896.5
66927.2
67567.4
66586
63424.6
59582.1
56351.2
52988.7
49004.5
46356.6
45365.1
45300.7
44491.5
43129.4
40789.7
37687.8
34072.3
29769.6
25459.8
20613.4
14642
11405.6
12137.4
14185
15215
14908.4
13462.8
5817.83
-610.134
-1.4007e+06
-1.41206e+06
-1.40947e+06
-1.40821e+06
-1.40848e+06
-1.40811e+06
-1.40793e+06
-1.40747e+06
-1.40461e+06
-1.39838e+06
-1.39332e+06
-1.39739e+06
-1.40729e+06
-1.37352e+06
-1.26466e+06
-1.20864e+06
-1.17323e+06
-1.15312e+06
-1.09824e+06
-1.03456e+06
-988673
-969312
-960234
-936820
-893433
-829596
-797093
-843379
-892615
-803752
-577976
-485534
-461857
-431944
-391472
-320724
-229793
-125349
-54873.5
-29974.5
-42949.9
-32722.5
-5584.64
7627.85
16041.9
23163.5
49126.2
55440.4
34360.2
25163.2
78440.3
128369
148375
153054
151312
146890
140787
136419
131899
125225
118827
113000
105940
98187.7
92167.9
87463.4
82285.6
77827.1
74995
73170.3
70132
66821.2
66685
67552.8
66910.5
64099.4
60245.1
56668.2
52955.9
48278.3
45147.4
43824.6
43988.5
43273.9
42228.2
40561.8
37594.9
34060.6
30030.8
25902.3
21268.6
15362.9
11804.1
12340.4
14492.4
15310.3
14916.9
13808.4
6415.68
-185.922
-1.40098e+06
-1.4124e+06
-1.40954e+06
-1.40805e+06
-1.40791e+06
-1.40747e+06
-1.407e+06
-1.40658e+06
-1.40382e+06
-1.39707e+06
-1.39127e+06
-1.39607e+06
-1.40847e+06
-1.37567e+06
-1.26046e+06
-1.20756e+06
-1.17586e+06
-1.15344e+06
-1.09233e+06
-1.03267e+06
-990969
-976972
-967561
-942843
-893051
-827438
-798106
-840011
-880182
-773729
-580127
-497956
-475705
-446298
-402425
-318244
-220153
-134069
-64068.9
-37972.1
-53807.3
-37611.1
-391.62
15023.3
22640.8
28606.5
54528.3
59367.1
30457.9
31924.7
76330.4
132463
153204
157758
155064
149096
142642
138006
132909
125939
119442
113367
106212
98822.2
92740.1
87635.7
82130.1
77961.4
75460.2
73228.5
69863.3
66573.2
66367.5
67413.8
67121.1
64639
61035.5
57233
53015.9
47696.8
43964.2
42402.8
42547.4
42058.4
41497.3
40386
37433.9
34018.6
30243.4
26253.3
21746.3
16021.9
12155.2
12355
14643.4
15092.1
14948.7
14354.7
7164.38
373.714
-1.40119e+06
-1.41264e+06
-1.40933e+06
-1.40765e+06
-1.40734e+06
-1.40703e+06
-1.40612e+06
-1.40558e+06
-1.40286e+06
-1.39573e+06
-1.38912e+06
-1.39406e+06
-1.40806e+06
-1.37688e+06
-1.25824e+06
-1.20409e+06
-1.18275e+06
-1.15078e+06
-1.08748e+06
-1.0311e+06
-994763
-984839
-974595
-945045
-891453
-824456
-804067
-840470
-870346
-758540
-573344
-503226
-481566
-455373
-415315
-318402
-211672
-145649
-72503.3
-44694.8
-63068.2
-43591.3
6687.66
24028.7
30459.8
35650.5
61975.3
60591.2
29395.4
42079.3
75655.7
135936
158047
162562
158585
151656
144585
139577
134001
126666
120069
113792
106491
99391.9
93336.7
87577.9
82085
78355.6
76057.3
73081.6
69426.3
66181.9
65846.8
67197.9
67149.8
65004.4
61767.6
57958.4
53183.8
47218.3
42913.6
41192.4
41231.9
40857.7
40903.1
40204.4
37322.1
33992.2
30426.9
26519
22000.2
16625.1
12411
12327.7
14658.1
14849.8
14941.1
15228.9
8030.52
1019.77
-1.40139e+06
-1.41288e+06
-1.40911e+06
-1.40729e+06
-1.40693e+06
-1.40637e+06
-1.4052e+06
-1.40469e+06
-1.40198e+06
-1.39404e+06
-1.38675e+06
-1.39162e+06
-1.40636e+06
-1.37728e+06
-1.25855e+06
-1.20138e+06
-1.19073e+06
-1.14762e+06
-1.08408e+06
-1.03012e+06
-999421
-994048
-981354
-944322
-888163
-820196
-809433
-841049
-863637
-750301
-569801
-508242
-486684
-462955
-424754
-319172
-211747
-155882
-79853.1
-52340.1
-70588.2
-49911.6
14693.5
32351.9
38022.6
44633.1
67944.5
57818.4
32726.9
48988.7
75052.5
138814
163029
167422
162078
153907
146804
141396
134875
127273
120949
114416
106860
99907.2
93545.9
87709.4
82464.4
78538.3
76233.4
73130.8
69025.3
65654.2
65240.1
66625.2
66860
64967.9
62414.1
58645.4
53603.8
46887.1
41973.7
40032.1
39988.6
40136.8
40571.2
39907.6
37155.8
33882.6
30547.2
26712.8
22108.8
17128.7
12607.4
12201.1
14645.3
14559.6
14887.7
16154.6
8974.48
1929.84
-1.40177e+06
-1.41325e+06
-1.40897e+06
-1.40673e+06
-1.40653e+06
-1.4057e+06
-1.40439e+06
-1.40386e+06
-1.40111e+06
-1.39254e+06
-1.38415e+06
-1.38896e+06
-1.40452e+06
-1.37787e+06
-1.26356e+06
-1.20095e+06
-1.19652e+06
-1.14538e+06
-1.0808e+06
-1.03029e+06
-1.00498e+06
-1.00207e+06
-985459
-944449
-882379
-817232
-812082
-842469
-860623
-741630
-569952
-511641
-486794
-467934
-429379
-320021
-219743
-168360
-88481.6
-61874.8
-76916.6
-54569.1
21097.6
38451.2
45188.9
55632.8
69588.5
56676.1
39696
50697.5
76211.7
141203
167943
172104
165626
156609
148722
142772
135973
128299
121774
114844
107432
100407
93618.7
87922.1
82859.1
78904.7
76356.5
72923.1
68471.2
65222.9
64643.9
65881.9
66110
64655.5
62917.5
59358.8
54190.9
46969.9
41293.2
38848
38488
39769.2
40496.7
39593.8
37051.2
33856.2
30598.6
26902.3
22248.1
17646.4
13115.5
12147.2
14522.9
14159.3
14865
17226.6
9895.02
2849.31
-1.40213e+06
-1.41343e+06
-1.40869e+06
-1.40631e+06
-1.40605e+06
-1.40505e+06
-1.40367e+06
-1.40294e+06
-1.4002e+06
-1.39126e+06
-1.38198e+06
-1.38646e+06
-1.40267e+06
-1.37677e+06
-1.27139e+06
-1.20366e+06
-1.19901e+06
-1.1437e+06
-1.0785e+06
-1.03063e+06
-1.01157e+06
-1.00933e+06
-986734
-943392
-878706
-818455
-814308
-843977
-854676
-731091
-571616
-513839
-481705
-465430
-431026
-320565
-235801
-186774
-97323.9
-70041.1
-81363.9
-54385.7
25437.3
41033.9
50939.2
66224.2
69412.5
58932.6
47467.9
51182.1
81281.4
143247
172816
176573
169140
159453
150919
144149
136803
129196
122536
115207
108008
100824
93946.4
88134.2
82815.7
79162.9
76597.8
72759.1
67708.6
64513.7
64043.8
65165.2
64809.6
64075.3
63350
60198.9
54928
47630.7
40761.9
37647.2
36976.3
39339.2
40278.1
39290.8
36939.7
33934.1
30707.3
27072.7
22496.7
18261.2
13973.7
12381.3
14311.8
13698.1
14651.6
18005
10907.3
3813.07
-1.40235e+06
-1.41354e+06
-1.40851e+06
-1.40586e+06
-1.40556e+06
-1.40444e+06
-1.40289e+06
-1.4021e+06
-1.39931e+06
-1.39016e+06
-1.38048e+06
-1.38444e+06
-1.4007e+06
-1.37506e+06
-1.28146e+06
-1.21156e+06
-1.19876e+06
-1.14057e+06
-1.07694e+06
-1.03201e+06
-1.01738e+06
-1.01351e+06
-987360
-941876
-879052
-821175
-815962
-843670
-843435
-721546
-574860
-514655
-479120
-462151
-434069
-325008
-253599
-204004
-107307
-70802.8
-80717.2
-47123.8
31126.6
42055.2
52699.5
73673.6
70647.7
58936.6
53546.2
53538.8
90793.4
144076
177757
180755
172479
162394
152911
145477
137770
129956
123049
115764
108653
101195
94383.5
88185
82913.2
79271.2
76586.6
72805.3
67308.9
63626.3
63153.3
64347.2
63431.5
63221.1
64042.3
61420
55816.5
48715.2
40411.8
36301.9
35405.5
38581.8
39994.2
39038.6
36881.5
34047.3
30859.9
27370.9
22884
19001.3
15106.2
12803.7
14210.1
12967.8
14436.7
18446.1
12063.1
4739.38
-1.4026e+06
-1.41346e+06
-1.40824e+06
-1.40551e+06
-1.40513e+06
-1.40383e+06
-1.40214e+06
-1.40127e+06
-1.39854e+06
-1.38922e+06
-1.37938e+06
-1.38284e+06
-1.39794e+06
-1.3732e+06
-1.29022e+06
-1.22499e+06
-1.20004e+06
-1.13724e+06
-1.07587e+06
-1.03384e+06
-1.02284e+06
-1.01478e+06
-986921
-940445
-881028
-826321
-818738
-838454
-826206
-709965
-578985
-518321
-482622
-460407
-429872
-322846
-258803
-207571
-114848
-61891.4
-68930
-27168.3
41097.3
44024.3
52445.3
78356.6
71708.4
54882.2
57885.5
58294.2
99244.7
144178
181775
184559
175760
164850
154868
146826
138700
130590
123441
116438
109273
101680
94614.4
88330.1
83333.7
79557.7
76367.4
72807.8
67111.5
62807.6
62482.5
63095.5
62368.7
62658.6
65294.1
62883.1
56836.9
49702.6
40624.5
34709.6
33791
37434.1
39532.3
38891.4
36947.8
34217.2
31035.7
27659
23442.5
19933.8
16321.3
13246
14383.7
12329.9
14287.1
18745.9
13307.5
5549.51
-1.40278e+06
-1.41327e+06
-1.40793e+06
-1.40532e+06
-1.40486e+06
-1.40304e+06
-1.40138e+06
-1.40051e+06
-1.39776e+06
-1.3884e+06
-1.37837e+06
-1.38129e+06
-1.39345e+06
-1.37113e+06
-1.29877e+06
-1.24093e+06
-1.20289e+06
-1.13622e+06
-1.07541e+06
-1.03497e+06
-1.02732e+06
-1.01514e+06
-983349
-939161
-883825
-832250
-820890
-829716
-807992
-699714
-583803
-525284
-490544
-460847
-419577
-316215
-257903
-207724
-114580
-48949.7
-47197.5
-413.496
53622.7
45629.3
51585.6
80032.3
70823
51900.3
61645.6
65615
102641
146278
185302
188044
178759
167008
156698
148142
139573
131030
123813
117078
109909
101934
94833.1
88682.4
83683
79777.4
76420.9
72829.2
66925.2
62723.8
62132.3
61633.4
61464.3
62695.5
66523.4
64448.2
57839.6
50137.8
40836.9
33149.4
32233.7
36122.8
38930.3
38791.6
37077.7
34397.8
31164.1
27787.7
23892.5
20781.2
17365.9
13711.5
14697.7
11833.1
14372.3
19112
14486.2
6105.28
-1.40291e+06
-1.41297e+06
-1.40769e+06
-1.40507e+06
-1.40464e+06
-1.40247e+06
-1.40047e+06
-1.3997e+06
-1.39714e+06
-1.38757e+06
-1.37735e+06
-1.37943e+06
-1.38764e+06
-1.36931e+06
-1.30864e+06
-1.25816e+06
-1.20873e+06
-1.13622e+06
-1.07568e+06
-1.03584e+06
-1.029e+06
-1.01454e+06
-977841
-935278
-884993
-837961
-822007
-820858
-793016
-692005
-589016
-537504
-504887
-465364
-410937
-317270
-257394
-207347
-111829
-46379
-35841.8
14378.6
59571.7
46810
50329.1
79119.2
68548.2
51586
64465.2
75552.3
104735
150683
188281
191676
181023
168978
158699
149365
140397
131448
124145
117718
110347
102129
95030.3
89079.1
83968.4
79702.8
76541.3
73095.7
66680
63008.5
61986.8
60658.6
60365.2
63529.2
67871.9
66142.8
58738.3
50409.6
40416.6
31720
30832.2
34811.3
38266.1
38758
37252.2
34484.7
31178.8
27856.2
24226.9
21319.9
18216.5
14468.3
14952.7
11426.6
14728.3
19602.9
15591.4
6519.77
-1.4029e+06
-1.41258e+06
-1.4076e+06
-1.40486e+06
-1.40419e+06
-1.40197e+06
-1.39963e+06
-1.39882e+06
-1.39644e+06
-1.38668e+06
-1.37629e+06
-1.37731e+06
-1.38182e+06
-1.36743e+06
-1.32017e+06
-1.27552e+06
-1.2151e+06
-1.13715e+06
-1.07554e+06
-1.03479e+06
-1.02923e+06
-1.01358e+06
-971430
-928952
-885347
-843261
-822488
-813748
-782115
-687944
-594347
-551505
-519938
-471278
-407290
-321883
-258981
-206824
-114977
-49149.2
-31975.4
20731.2
59268.5
46350.1
48472.7
76661.8
65784.9
53224.4
67331.6
83299.4
108285
156813
190717
194654
182756
171081
160564
150519
141057
131722
124449
118312
110656
102329
95310.3
89268.7
84047.5
79783.6
76876.3
73389.1
66657.3
63296.7
61473.2
60044.3
59159.1
64870.7
69519
67566.1
59571
50592.8
39354.7
30385.2
29623.4
33668.4
37627.4
38742.4
37373.9
34419.3
31176
27976.7
24370.1
21657.1
19110.8
15461
15156.8
11448.2
15231.1
20200.7
16649.8
6745.72
-1.40276e+06
-1.41207e+06
-1.4075e+06
-1.4047e+06
-1.40365e+06
-1.40131e+06
-1.39896e+06
-1.39809e+06
-1.39564e+06
-1.38576e+06
-1.37527e+06
-1.37496e+06
-1.37717e+06
-1.36573e+06
-1.33039e+06
-1.29112e+06
-1.22124e+06
-1.13832e+06
-1.07413e+06
-1.03186e+06
-1.02877e+06
-1.01311e+06
-965602
-921969
-885196
-848195
-823860
-809341
-775830
-687612
-598912
-565210
-534138
-477662
-407046
-326488
-263348
-204897
-117745
-54633.4
-30726
25102.2
57865
44267.5
47484.1
74251.8
63358.3
55232.4
69106.6
87979.8
114765
161771
192879
197353
184769
172993
162114
151734
141647
131718
124580
118870
111032
102548
95707.8
89402.1
84051.5
80020.3
77282.2
73699
67062.2
63945.7
60860.7
59253.8
58476.7
66209.2
70820.5
68497.8
60511.4
50941.7
37849
29191.5
28689.4
32691.3
37061.7
38696.2
37393.5
34329.3
31088.5
28141.2
24442.2
21950.6
20115.2
16626.1
15331.7
11724.7
15781.3
20863.8
17806.5
6922.62
-1.4025e+06
-1.41157e+06
-1.40738e+06
-1.40446e+06
-1.40321e+06
-1.40055e+06
-1.39829e+06
-1.39752e+06
-1.39491e+06
-1.38488e+06
-1.37456e+06
-1.37271e+06
-1.37309e+06
-1.36376e+06
-1.33812e+06
-1.30298e+06
-1.22572e+06
-1.13867e+06
-1.07144e+06
-1.02807e+06
-1.02889e+06
-1.01376e+06
-959160
-914298
-884381
-852701
-826387
-807566
-773304
-690129
-602945
-577187
-546677
-484114
-408579
-331270
-266966
-204450
-124397
-62406.3
-25660.8
25740.5
55381
45421.7
47134.8
72307.1
61647.9
56345.7
70005.7
93272.8
122883
164259
196060
200315
186840
174638
163616
152725
142119
131757
124620
119411
111514
102938
96165.1
89543.7
84016.9
80250.6
77712.9
74239.2
67941.5
64872.4
60856.5
58161.2
58551
66882.3
71402.4
69156.4
61239.5
51423.8
37237.2
28441.9
28048.9
31973.7
36616
38602.5
37416.5
34140.3
30936.8
28168.9
24573.4
22296.2
21028.4
17876.8
15412.9
12419.5
16461.1
21564.6
19040.5
7187.99
-1.40212e+06
-1.41111e+06
-1.40725e+06
-1.40405e+06
-1.40287e+06
-1.39997e+06
-1.39763e+06
-1.3969e+06
-1.39431e+06
-1.38419e+06
-1.37396e+06
-1.37079e+06
-1.36953e+06
-1.36075e+06
-1.34304e+06
-1.31034e+06
-1.22737e+06
-1.13789e+06
-1.06876e+06
-1.02528e+06
-1.02987e+06
-1.01572e+06
-953459
-905898
-882830
-856727
-829932
-808253
-773202
-693706
-606745
-587061
-556835
-489639
-411007
-335970
-270508
-206107
-131603
-70220.8
-20763.8
24723.2
49105.4
46794.1
45919.8
70394.5
61823.9
57105.7
71431.9
99372.3
128555
167563
199661
203085
188435
175749
164829
153430
142301
131546
124540
119682
112052
103602
96705.8
89562.9
83950.6
80438
78173.4
74846.8
69280.9
65992.2
61600.6
57002
58771.9
66939
71470.5
69449
61561.2
51831.4
37873.3
28330.9
27593.2
31414.4
36274.8
38539.4
37422.1
33949.4
30697.3
28271.5
24713.5
22411.5
21840.7
18981.4
15412
13439.4
17256.7
22374.6
20413.3
7471.38
-1.40173e+06
-1.41059e+06
-1.40713e+06
-1.40358e+06
-1.40243e+06
-1.39958e+06
-1.39708e+06
-1.39621e+06
-1.39373e+06
-1.38375e+06
-1.37377e+06
-1.36942e+06
-1.36637e+06
-1.35667e+06
-1.34616e+06
-1.31363e+06
-1.22575e+06
-1.13564e+06
-1.06648e+06
-1.02473e+06
-1.0327e+06
-1.01813e+06
-949903
-898291
-880543
-860038
-834342
-811144
-774233
-695938
-609776
-594523
-564190
-493782
-413601
-340332
-274639
-209712
-139361
-78109
-20647
21871.8
42411.7
48326.2
44754.4
66739.7
62626.5
59028.4
75485
106593
133873
171641
202082
205849
189726
176478
165770
154169
142624
131234
124167
119692
112679
104212
97371.3
89516
83647.9
80727.9
78447.5
75174.5
70457.5
67020
62755
56205.3
58655.2
66965.5
71394.2
69398.2
61663.8
52146.9
38673.8
28574.1
27344.6
31076
35952.1
38444.1
37484.2
33926
30510
28223
24741.7
22302.6
22292.9
19950.8
15447.7
14647.8
18056.5
23195.7
22019.8
7819.04
-1.4014e+06
-1.40998e+06
-1.407e+06
-1.40317e+06
-1.40196e+06
-1.39928e+06
-1.39665e+06
-1.39555e+06
-1.3931e+06
-1.38336e+06
-1.37355e+06
-1.36842e+06
-1.36364e+06
-1.35274e+06
-1.34752e+06
-1.3147e+06
-1.22131e+06
-1.13202e+06
-1.06488e+06
-1.02609e+06
-1.03529e+06
-1.02291e+06
-948108
-890514
-877668
-863585
-839048
-815144
-776969
-695139
-609318
-595792
-567537
-496598
-416127
-344310
-279469
-215406
-147810
-86539.7
-25075.7
15239.4
36961.3
48467.1
44310
63329.9
64548
63199.8
81870.9
112355
140702
173300
202818
209219
191661
177472
167034
155316
143675
131261
123072
119407
113617
105083
97805.7
89377.8
82941.7
80602.4
78755.7
75557.3
71154.2
67950.7
63274.8
55871.5
58465.7
67086.3
71243.7
68940.2
61421.4
52331
39308.4
29022.8
27204.5
30953.6
35796.9
38255.5
37421.6
34033
30473.5
27961.7
24468.8
22170.4
22363.3
20613.6
15773.6
15886.6
18944.7
23946.5
23609.5
8434.5
-1.40111e+06
-1.40926e+06
-1.40685e+06
-1.40283e+06
-1.40153e+06
-1.39901e+06
-1.39635e+06
-1.39504e+06
-1.39239e+06
-1.38318e+06
-1.37348e+06
-1.36748e+06
-1.36112e+06
-1.35023e+06
-1.34632e+06
-1.31453e+06
-1.21505e+06
-1.12721e+06
-1.06588e+06
-1.02825e+06
-1.03409e+06
-1.02701e+06
-950171
-887090
-876164
-866198
-843224
-820847
-782868
-691457
-605377
-590872
-565260
-497849
-418899
-347995
-284863
-222976
-156987
-95607.5
-32609.6
5631.14
30784.6
47936.4
44847.9
62107
68653.9
69767
88287.3
117509
147686
174929
202461
212202
194959
178402
168909
157225
145177
131660
121310
118338
114584
106602
98507.3
89327.6
81848.2
79913.6
79074.4
76002.3
71638.2
68946.9
64149.8
55950.7
58236
67312.4
70950.7
67853.4
61034.7
52665.2
40070.5
29657.8
27280
30951.2
35833.1
38193.3
37135.6
33897.8
30604.1