/*--------------------------------*- C++ -*----------------------------------*\
| =========                 |                                                 |
| \\      /  F ield         | foam-extend: Open Source CFD                    |
|  \\    /   O peration     | Version:     5.0                                |
|   \\  /    A nd           | Web:         http://www.foam-extend.org         |
|    \\/     M anipulation  |                                                 |
\*---------------------------------------------------------------------------*/
FoamFile
{
    version     2.0;
    format      ascii;
    class       surfaceScalarField;
    location    "0.075";
    object      phi;
}
// * * * * * * * * * * * * * * * * * * * * * * * * * * * * * * * * * * * * * //

dimensions      [0 3 -1 0 0 0 0];

internalField   nonuniform List<scalar> 
7860
(
0.0754778
-0.0704778
0.0171172
0.0583436
-0.0467631
0.0638641
-0.102461
0.0556796
-0.173769
0.071286
-0.256439
0.0826423
-0.383306
0.126829
-0.574387
0.191033
-0.800311
0.225867
-0.981033
0.180656
-1.2064
0.225292
-1.58229
0.375816
-2.28857
0.706187
-3.27472
0.98606
-4.02194
0.747135
-4.27938
0.25735
-4.25945
-0.0200019
-4.21368
-0.0458415
-4.32704
0.113286
-4.50554
0.17844
-4.51064
0.00503668
-4.3696
-0.141082
-4.17214
-0.197487
-3.92243
-0.249729
-3.81892
-0.103523
-3.81505
-0.00386447
-4.02696
0.211913
-4.67441
0.647462
-5.50639
0.83199
-5.91605
0.409671
-5.65684
-0.259206
-5.18125
-0.475591
-4.72241
-0.458846
-4.65855
-0.0638619
-5.01611
0.357556
-5.40934
0.393217
-5.74885
0.3395
-5.90955
0.160689
-5.58274
-0.326828
-5.03408
-0.548682
-4.56074
-0.473358
-4.10087
-0.459883
-3.79104
-0.309847
-3.6907
-0.100352
-3.74415
0.0534389
-3.81518
0.0710272
-3.64054
-0.17464
-3.58525
-0.0552717
-3.53872
-0.0465006
-3.24731
-0.291367
-2.96337
-0.283866
-2.58719
-0.376109
-2.1909
-0.396218
-1.85377
-0.337071
-1.60952
-0.244207
-1.34002
-0.269471
-1.0586
-0.281394
-0.902822
-0.155773
-0.765442
-0.13738
-0.630479
-0.134967
-0.518367
-0.11212
-0.41221
-0.106163
-0.386424
-0.0257936
-0.324473
-0.0619566
-0.268994
-0.0554868
-0.210557
-0.0584438
-0.186205
-0.0243637
-0.186335
0.000122331
-0.170384
-0.0159622
-0.151899
-0.0184925
-0.136143
-0.0157636
-0.121988
-0.0141562
-0.0702175
-0.0517722
0.00473906
-0.0749515
0.0766161
-0.0718759
0.139852
-0.0632358
0.176046
-0.0362047
0.193096
-0.0170638
0.19444
-0.00136594
0.184836
0.0095847
0.186502
-0.00168607
0.201118
-0.0146319
0.248747
-0.0476462
0.334557
-0.0858271
0.422622
-0.0880838
0.471018
-0.0484121
0.475778
-0.00477361
0.463912
0.0118602
0.457911
0.00600461
0.439536
0.0183932
0.403322
0.0362545
0.346953
0.0564362
0.271854
0.0752077
0.235698
0.0363177
0.224958
0.0109743
0.215704
0.00955831
0.228374
-0.0122804
0.247379
-0.0185844
0.263975
-0.0161802
-0.0332769
0.0963163
-0.161812
0.0231637
0.131458
-0.0745895
0.161578
-0.133019
0.114062
-0.211547
0.149754
-0.393568
0.264586
-0.643256
0.37642
-0.860259
0.407921
-1.16445
0.52993
-1.55227
0.568327
-1.92098
0.593847
-2.57442
1.02907
-3.67601
1.80758
-4.88381
2.19367
-5.44504
1.30819
-5.38294
0.19509
-5.24767
-0.155413
-5.31483
0.0211805
-5.32247
0.120805
-5.12289
-0.0212399
-4.77896
-0.338976
-4.52544
-0.394654
-4.66167
-0.0612954
-4.71475
-0.196667
-4.71008
-0.108201
-5.01336
0.29943
-5.71074
0.90931
-6.71306
1.64981
-7.65399
1.77293
-8.08939
0.845083
-7.77027
-0.578325
-7.07895
-1.16692
-6.701
-0.83681
-6.82572
0.0608505
-7.14487
0.676685
-7.66146
0.909792
-8.34396
1.02196
-8.53292
0.349616
-8.11528
-0.744496
-7.30889
-1.35511
-6.58271
-1.19957
-6.11729
-0.92533
-5.57053
-0.856626
-5.40441
-0.266485
-5.60399
0.25301
-5.44931
-0.0836464
-4.9831
-0.640823
-4.66772
-0.370601
-4.56632
-0.147818
-4.32099
-0.536592
-4.0465
-0.558242
-3.79673
-0.625767
-3.46553
-0.727305
-3.08798
-0.714534
-2.70932
-0.622806
-2.37996
-0.59879
-2.06257
-0.598768
-1.7876
-0.430744
-1.55304
-0.371938
-1.33566
-0.352363
-1.1429
-0.304892
-0.955189
-0.293885
-0.726883
-0.254115
-0.640999
-0.147851
-0.561764
-0.13474
-0.482163
-0.138058
-0.448325
-0.0582221
-0.406109
-0.0421082
-0.403448
-0.018642
-0.348372
-0.0735762
-0.306085
-0.0580608
-0.262634
-0.0576038
-0.144274
-0.170133
0.00849896
-0.227719
0.161278
-0.224663
0.291493
-0.193466
0.37478
-0.119525
0.419433
-0.0617527
0.434602
-0.0165795
0.422357
0.021793
0.434755
-0.0141238
0.49498
-0.074893
0.61228
-0.164987
0.756095
-0.229678
0.880635
-0.212661
0.963987
-0.131788
0.996569
-0.0373676
0.98579
0.0226525
0.959495
0.0323436
0.95036
0.0276161
0.916592
0.0701712
0.801998
0.17126
0.654859
0.222694
0.563613
0.128044
0.521831
0.0533976
0.510421
0.0217395
0.523493
-0.0244628
0.524059
-0.0183497
0.539406
-0.030916
-0.0862098
0.0362614
-0.193093
-4.9642e-05
0.167733
-0.0271418
0.188633
-0.0939741
0.18085
-0.165749
0.221473
-0.28514
0.383905
-0.490206
0.581398
-0.790956
0.708566
-1.1581
0.89695
-1.62522
1.0353
-2.21878
1.18723
-2.92447
1.73456
-3.94844
2.83132
-4.79755
3.04257
-4.92514
1.43562
-4.77057
0.0403805
-4.60613
-0.319984
-4.53063
-0.0544405
-4.50562
0.0956891
-4.15623
-0.37071
-3.97291
-0.522368
-4.25464
-0.112976
-4.73504
0.419071
-5.13643
0.204698
-5.24261
-0.00202496
-5.49922
0.556055
-6.12272
1.53284
-7.15619
2.6833
-8.29911
2.91587
-8.97991
1.52589
-8.75827
-0.799966
-8.07339
-1.8518
-7.86627
-1.04393
-7.86278
0.0573449
-8.03817
0.85206
-8.7981
1.66969
-9.43214
1.65597
-9.47146
0.388901
-8.82636
-1.38963
-7.81092
-2.37058
-6.97571
-2.03482
-6.3985
-1.50256
-5.965
-1.29014
-5.71431
-0.517199
-5.76284
0.301538
-5.6771
-0.169384
-5.16012
-1.15778
-4.68213
-0.848548
-4.44942
-0.380465
-4.13339
-0.852547
-3.70971
-0.981832
-3.51072
-0.824662
-3.37342
-0.864517
-3.18319
-0.904686
-2.87678
-0.929161
-2.49391
-0.981617
-2.24976
-0.842908
-2.0314
-0.649093
-1.80217
-0.601179
-1.56914
-0.585395
-1.3448
-0.529254
-1.14024
-0.498451
-0.963404
-0.430962
-0.791022
-0.320243
-0.63356
-0.292217
-0.602517
-0.169112
-0.535552
-0.125204
-0.468524
-0.109149
-0.416155
-0.0710278
-0.368965
-0.120774
-0.330325
-0.0967102
-0.225465
-0.162459
-0.109972
-0.285628
0.047748
-0.385434
0.223643
-0.40057
0.342328
-0.312167
0.455975
-0.233207
0.518696
-0.124509
0.540972
-0.038898
0.542422
0.0203082
0.551914
-0.0236556
0.625295
-0.148309
0.749599
-0.289331
0.906826
-0.386941
0.998483
-0.304354
1.06465
-0.197975
1.09968
-0.0724067
1.10412
0.0182306
1.094
0.0425034
1.09443
0.0272797
1.06888
0.0958634
0.999938
0.240425
0.905423
0.317543
0.757094
0.276832
0.648144
0.162989
0.636666
0.0339951
0.64145
-0.0283674
0.610102
0.0137808
0.589542
-0.00979187
-0.104528
0.0428041
-0.230914
-0.000135618
0.210642
-0.0538441
0.242309
-0.0673276
0.194294
-0.121136
0.275231
-0.215413
0.478116
-0.420339
0.786239
-0.73827
1.02639
-1.14211
1.30067
-1.66074
1.55376
-2.29529
1.82159
-3.07345
2.51248
-3.89823
3.65587
-4.22948
3.37362
-4.05181
1.25781
-3.81219
-0.19936
-3.69798
-0.434303
-3.60814
-0.144391
-3.3539
-0.158642
-3.23929
-0.485385
-3.42096
-0.340755
-4.00707
0.473081
-4.75554
1.1675
-5.25592
0.705053
-5.53635
0.2784
-5.78313
0.802846
-6.46138
2.21112
-7.53221
3.75415
-8.6553
4.03898
-9.35412
2.22471
-9.34407
-0.810013
-9.06425
-2.13163
-8.92349
-1.1847
-8.78635
-0.079809
-8.99929
1.06498
-9.7413
2.41168
-10.0581
1.97275
-9.78699
0.117744
-9.04667
-2.12999
-7.82853
-3.58875
-6.62744
-3.23593
-6.06844
-2.06159
-5.65335
-1.70525
-5.33085
-0.839719
-5.22639
0.197068
-5.1725
-0.223262
-4.79831
-1.53196
-4.36875
-1.27808
-4.19566
-0.553504
-3.97271
-1.07543
-3.7305
-1.22396
-3.41914
-1.13595
-3.19937
-1.08421
-3.03399
-1.07
-2.80756
-1.15554
-2.62778
-1.16136
-2.422
-1.04868
-2.16661
-0.90448
-1.92353
-0.844263
-1.66994
-0.838993
-1.39686
-0.802341
-1.24535
-0.649967
-1.05459
-0.621738
-0.779917
-0.594925
-0.636992
-0.435155
-0.569858
-0.236255
-0.543962
-0.151115
-0.49776
-0.155361
-0.420451
-0.148353
-0.402295
-0.138937
-0.31676
-0.182255
-0.191944
-0.287271
-0.0693621
-0.408211
0.0711126
-0.525906
0.230996
-0.560463
0.363443
-0.444629
0.470736
-0.340529
0.541398
-0.1952
0.574542
-0.0720785
0.58356
0.0112611
0.588864
-0.0289915
0.659504
-0.218978
0.778794
-0.408656
0.882739
-0.490916
0.916702
-0.338347
0.9311
-0.21239
0.965652
-0.106965
0.978188
0.00570714
0.994521
0.0262053
1.01641
0.00545522
1.04192
0.0704759
1.01983
0.262682
0.9234
0.414232
0.823268
0.377317
0.737587
0.249177
0.700358
0.0718704
0.654599
0.018173
0.580516
0.0885873
0.535108
0.0361347
-0.132634
0.0147863
-0.240716
0.0186617
0.206739
-0.0123656
0.273307
-0.0712509
0.253142
-0.0942715
0.298203
-0.190473
0.574253
-0.391723
0.987405
-0.718573
1.35313
-1.14082
1.72278
-1.65416
2.06693
-2.27274
2.43996
-3.0418
3.28131
-3.6989
4.31275
-3.60928
3.28381
-3.15757
0.805973
-2.92463
-0.432402
-2.79453
-0.564501
-2.69108
-0.247927
-2.50367
-0.346133
-2.51795
-0.471171
-2.99429
0.135527
-4.05015
1.52888
-4.99277
2.11008
-5.43142
1.14368
-5.95944
0.80641
-6.69069
1.53412
-7.47518
2.99562
-8.3543
4.6333
-9.50053
5.18523
-10.1494
2.87354
-10.5504
-0.409002
-10.4327
-2.24932
-9.79213
-1.82526
-9.48281
-0.389145
-9.83855
1.42069
-10.5615
3.13464
-10.3668
1.77802
-9.2664
-0.982738
-8.15946
-3.23697
-7.02608
-4.72216
-6.01527
-4.24675
-5.40905
-2.66783
-4.99365
-2.12067
-4.60065
-1.23274
-4.24865
-0.154945
-4.24025
-0.231651
-4.10474
-1.66745
-3.77165
-1.61114
-3.71318
-0.611922
-3.80866
-0.97989
-3.64086
-1.39168
-3.33205
-1.44467
-3.04249
-1.3737
-2.84765
-1.26477
-2.66493
-1.33821
-2.47291
-1.35334
-2.25527
-1.26631
-2.06508
-1.09466
-1.86625
-1.04311
-1.64486
-1.06039
-1.46701
-0.980206
-1.20701
-0.909968
-0.95542
-0.873342
-0.789246
-0.761106
-0.716113
-0.508298
-0.632188
-0.320188
-0.561054
-0.222262
-0.511173
-0.205252
-0.465224
-0.194315
-0.386312
-0.217854
-0.261448
-0.307128
-0.178587
-0.37013
-0.0773055
-0.509494
0.0754097
-0.678618
0.19171
-0.676773
0.323087
-0.576017
0.422666
-0.440135
0.498612
-0.271173
0.549917
-0.123415
0.562304
-0.00115174
0.579295
-0.0460114
0.617719
-0.257428
0.715866
-0.506834
0.751151
-0.526227
0.682995
-0.270216
0.639644
-0.169053
0.652695
-0.120021
0.712341
-0.0539288
0.750549
-0.011972
0.810064
-0.0540008
0.874556
0.00608903
0.905054
0.232341
0.886253
0.433256
0.813043
0.450831
0.731105
0.331569
0.669822
0.133745
0.616855
0.0718587
0.510243
0.195852
0.411098
0.135748
-0.106934
-0.0186974
-0.217032
0.00121381
0.186802
0.0011587
0.273333
-0.0232363
0.277501
-0.0861828
0.361103
-0.187939
0.675946
-0.39465
1.19403
-0.752438
1.71081
-1.16032
2.13053
-1.65032
2.55675
-2.18093
2.97036
-2.92649
4.02664
-3.26271
4.64872
-2.85576
2.87669
-2.43542
0.385522
-2.17345
-0.694454
-2.07607
-0.661967
-1.95101
-0.373066
-1.97152
-0.325685
-2.38894
-0.0538103
-3.08142
0.827938
-4.15449
2.60189
-5.06663
3.02217
-5.88789
1.96492
-6.77768
1.6962
-7.92332
2.67978
-9.22336
4.29568
-9.99422
5.40419
-10.2751
5.46608
-10.5239
3.12241
-11.155
0.222057
-10.7352
-2.66909
-10.0476
-2.51287
-10.2198
-0.217017
-10.886
2.08688
-10.6175
2.86615
-9.29441
0.454864
-7.74948
-2.5277
-6.53156
-4.45492
-5.68837
-5.56537
-4.88993
-5.04521
-4.38011
-3.17767
-4.09949
-2.40132
-3.72934
-1.6029
-3.45004
-0.43426
-3.3717
-0.309991
-3.23629
-1.80285
-2.96716
-1.88024
-3.03949
-0.539557
-3.32893
-0.690394
-3.28689
-1.43364
-3.09655
-1.63494
-2.83278
-1.6374
-2.64472
-1.45276
-2.50738
-1.47551
-2.26178
-1.59891
-2.08057
-1.44751
-1.89709
-1.27814
-1.72577
-1.21443
-1.54185
-1.24432
-1.33593
-1.18613
-1.13382
-1.11209
-0.959938
-1.04724
-0.802438
-0.918611
-0.680875
-0.629871
-0.652532
-0.348538
-0.629306
-0.245499
-0.577032
-0.257534
-0.479272
-0.292089
-0.383755
-0.313377
-0.266199
-0.424693
-0.161554
-0.474775
-0.0968061
-0.574244
-0.00998876
-0.765434
0.113247
-0.800017
0.227903
-0.690685
0.327633
-0.539889
0.407524
-0.351089
0.462248
-0.178168
0.498215
-0.0371424
0.519118
-0.0669408
0.543944
-0.282276
0.514678
-0.477596
0.434132
-0.445704
0.335729
-0.171834
0.221894
-0.0552287
0.242422
-0.140554
0.396071
-0.207569
0.454082
-0.0699564
0.504319
-0.104182
0.597592
-0.087087
0.710687
0.11939
0.783336
0.360812
0.731123
0.503325
0.666382
0.396725
0.609452
0.191203
0.541904
0.140053
0.403919
0.334435
0.262296
0.277812
-0.0880616
-0.0576638
-0.15438
-0.0333273
0.162441
0.0119753
0.228003
-0.0259308
0.315371
-0.0995252
0.43465
-0.224485
0.800841
-0.436356
1.40581
-0.725151
1.9995
-1.18574
2.59097
-1.65362
3.02445
-2.07387
3.3904
-2.64305
4.59559
-2.59789
4.60333
-2.04658
2.32523
-1.65743
-0.00371641
-1.53139
-0.820576
-1.50473
-0.688694
-1.45461
-0.423251
-1.71622
-0.0641474
-2.64828
0.878193
-3.84358
2.02317
-4.83964
3.59788
-5.478
3.66049
-6.21486
2.70175
-7.34178
2.82312
-9.12341
4.46143
-10.0134
5.18572
-9.768
5.15882
-10.1478
5.84586
-11.3433
4.31793
-9.41923
-1.70198
-7.61092
-4.47741
-8.54915
-1.57466
-9.73024
0.964052
-10.8333
3.18989
-9.85799
1.89081
-7.7417
-1.66146
-5.90208
-4.36735
-4.77358
-5.58345
-4.1334
-6.20557
-3.60338
-5.57526
-3.19112
-3.58994
-3.0908
-2.50166
-2.84306
-1.85067
-2.38736
-0.889973
-2.31322
-0.384129
-2.32657
-1.78949
-2.05814
-2.14865
-2.23345
-0.364213
-2.69692
-0.22687
-2.90545
-1.22505
-2.8328
-1.70753
-2.61211
-1.85802
-2.51622
-1.54859
-2.38611
-1.60557
-2.11094
-1.87404
-1.89428
-1.66415
-1.72487
-1.44755
-1.56949
-1.36982
-1.40437
-1.40944
-1.14895
-1.44157
-1.01607
-1.24498
-0.896792
-1.16652
-0.768488
-1.04692
-0.659786
-0.738582
-0.57983
-0.4285
-0.540005
-0.285335
-0.478742
-0.318805
-0.405021
-0.365822
-0.304806
-0.413599
-0.254776
-0.474732
-0.211236
-0.518315
-0.164531
-0.620953
-0.0803585
-0.849605
0.010759
-0.891143
0.115382
-0.795319
0.204819
-0.629349
0.279021
-0.425315
0.353352
-0.252528
0.400823
-0.0846351
0.41736
-0.0835024
0.384898
-0.249836
0.268376
-0.3611
0.0883152
-0.265663
-0.094216
0.0106784
-0.224714
0.0752594
-0.270456
-0.094816
-0.145493
-0.332523
0.0737439
-0.289167
0.178206
-0.208593
0.324122
-0.232912
0.481253
-0.0376048
0.540176
0.302085
0.578557
0.46521
0.555442
0.420228
0.517189
0.229954
0.433027
0.224825
0.25312
0.514916
0.102719
0.428642
-0.031642
-0.0954997
-0.0538926
-0.083901
0.150819
-0.0314394
0.175514
-0.0331418
0.317038
-0.137702
0.539163
-0.277125
0.940199
-0.498456
1.62705
-0.817494
2.31841
-1.22653
2.99984
-1.59028
3.38801
-1.90673
3.70664
-2.21012
4.89877
-1.85757
4.25058
-1.31877
1.78629
-1.05917
-0.263394
-0.998661
-0.881146
-1.05852
-0.628899
-1.2971
-0.18473
-1.83163
0.470311
-2.93836
1.98486
-4.61078
3.6955
-5.51502
4.50204
-5.69802
3.84343
-6.59929
3.603
-7.97932
4.20315
-8.43516
4.91729
-8.06555
4.81614
-7.8614
4.9547
-7.8041
5.78857
-7.21853
3.73236
-4.48315
-4.43737
-4.86752
-4.09305
-7.8005
1.3583
-8.78819
1.95171
-7.55806
1.95971
-6.07463
0.407344
-5.28336
-2.45277
-4.15103
-5.4997
-3.28534
-6.44916
-2.81223
-6.6787
-2.44972
-5.93778
-2.36977
-3.66991
-2.34311
-2.52833
-2.0065
-2.18729
-1.52555
-1.37094
-1.38166
-0.52802
-1.30813
-1.86301
-1.03376
-2.423
-1.31872
-0.0792227
-2.0092
0.463647
-2.4039
-0.830282
-2.47308
-1.63828
-2.41716
-1.91387
-2.28821
-1.67749
-2.09075
-1.80297
-1.94491
-2.01985
-1.74673
-1.86231
-1.57663
-1.61765
-1.43121
-1.51525
-1.22163
-1.61903
-1.0835
-1.57971
-0.939127
-1.38936
-0.820837
-1.28482
-0.727318
-1.14044
-0.619788
-0.84612
-0.541907
-0.506386
-0.453963
-0.373288
-0.381649
-0.391126
-0.349984
-0.3975
-0.324736
-0.438853
-0.28518
-0.514296
-0.231019
-0.572478
-0.191245
-0.66073
-0.169743
-0.871106
-0.0951246
-0.96577
-0.0162964
-0.874157
0.0583379
-0.704007
0.135465
-0.502463
0.19876
-0.31585
0.262889
-0.148784
0.282008
-0.102645
0.192073
-0.159921
-0.0483119
-0.120741
-0.346134
0.0321413
-0.560512
0.225039
-0.676383
0.191123
-0.718437
-0.0527657
-0.651141
-0.39981
-0.418951
-0.521332
-0.151411
-0.476084
0.0257152
-0.40995
0.238163
-0.249922
0.42761
0.112823
0.452685
0.440385
0.445317
0.427967
0.401878
0.273876
0.268728
0.358571
0.1135
0.670707
-0.0106506
0.553209
0.01667
-0.0775306
0.0286266
-0.10305
0.176315
-0.104729
0.177166
-0.114979
0.327253
-0.184907
0.609044
-0.354778
1.11
-0.57656
1.84874
-0.859062
2.60079
-1.1921
3.33272
-1.36574
3.56147
-1.52246
3.86318
-1.62728
5.00341
-1.13464
3.75777
-0.703566
1.3551
-0.545623
-0.421405
-0.600637
-0.82619
-0.771178
-0.458416
-1.22908
0.27311
-2.35381
1.59498
-3.8638
3.49476
-5.32043
5.15202
-5.59229
4.77381
-5.59855
3.84963
-5.96343
3.96786
-5.93076
4.17049
-5.26285
4.2494
-4.62768
4.181
-4.51549
4.84252
-4.40128
5.67437
-3.0703
2.40138
-1.78595
-5.72174
-3.55294
-2.32606
-5.07686
2.8822
-5.25866
2.13349
-4.41427
1.11529
-3.25892
-0.748037
-2.74122
-2.97049
-2.5718
-5.66914
-2.40245
-6.61853
-2.13676
-6.94441
-1.94324
-6.1313
-1.9105
-3.70266
-1.78344
-2.65541
-1.45903
-2.51172
-0.958606
-1.87138
-0.701768
-0.78486
-0.516412
-2.04836
-0.127646
-2.81175
-0.444292
0.237446
-1.18167
1.20106
-1.8068
-0.2051
-2.04355
-1.40146
-2.12206
-1.8353
-2.02439
-1.7751
-1.90469
-1.92264
-1.76762
-2.15689
-1.57688
-2.05304
-1.42488
-1.76966
-1.29434
-1.64579
-1.16515
-1.74823
-1.02423
-1.72064
-0.876523
-1.53707
-0.759564
-1.40179
-0.672956
-1.22706
-0.577803
-0.94128
-0.485427
-0.598766
-0.363727
-0.494998
-0.314934
-0.439926
-0.323486
-0.388959
-0.319467
-0.442878
-0.297859
-0.535914
-0.28868
-0.581659
-0.247064
-0.70235
-0.200113
-0.918058
-0.195744
-0.970148
-0.148881
-0.921031
-0.0893197
-0.76359
-0.0330032
-0.5588
0.0299471
-0.378825
0.0536445
-0.172501
0.0422082
-0.0912314
-0.104133
-0.0135989
-0.423004
0.198107
-0.777454
0.386575
-1.05119
0.498757
-1.20917
0.349105
-1.18504
-0.0769034
-1.04783
-0.537016
-0.812841
-0.756292
-0.484451
-0.804424
-0.191198
-0.703116
0.054064
-0.495053
0.213037
-0.0459617
0.303063
0.35061
0.317924
0.413475
0.236629
0.35565
0.122918
0.472876
0.0233038
0.770887
-0.0524943
0.629422
0.0610746
-0.0875771
0.121193
-0.102113
0.190827
-0.157477
0.232502
-0.204911
0.374651
-0.287298
0.691383
-0.444242
1.26688
-0.654867
2.05926
-0.908409
2.85419
-1.03824
3.4624
-1.06058
3.58365
-1.14124
3.94369
-1.08676
4.94876
-0.514295
3.18515
-0.137412
0.978121
-0.130172
-0.428702
-0.293062
-0.663352
-0.644273
-0.107259
-1.45893
1.08771
-3.25524
3.39121
-5.09171
5.33112
-5.12803
5.18821
-4.36545
4.01116
-4.07032
3.55446
-3.69481
3.59235
-3.21875
3.69442
-2.64622
3.67688
-2.29534
3.83014
-2.49438
5.04156
-2.47133
5.65132
-0.825875
0.755924
-0.303825
-6.24379
-2.58668
-0.0432198
-3.86481
4.16031
-3.75606
2.02472
-2.8821
0.241306
-1.78314
-1.84702
-1.13367
-3.61998
-1.09897
-5.70386
-1.50044
-6.21706
-1.87491
-6.56995
-1.85302
-6.15321
-1.63992
-3.91577
-1.52568
-2.76967
-1.2295
-2.80792
-0.660982
-2.43991
-0.202596
-1.24325
-0.0188359
-2.23212
0.363306
-3.19388
0.322178
0.278595
-0.364008
1.88727
-1.18106
0.611999
-1.57641
-1.00605
-1.70552
-1.70614
-1.68396
-1.7966
-1.64504
-1.96152
-1.49917
-2.30273
-1.30707
-2.24512
-1.23451
-1.84222
-1.14223
-1.73808
-1.04983
-1.84063
-0.944008
-1.82648
-0.806231
-1.67485
-0.699454
-1.50857
-0.617884
-1.30863
-0.546674
-1.0125
-0.45414
-0.691304
-0.368028
-0.581118
-0.311812
-0.496149
-0.291437
-0.409345
-0.27943
-0.454891
-0.272391
-0.542962
-0.286545
-0.567506
-0.287893
-0.701007
-0.291942
-0.914009
-0.308634
-0.953465
-0.289344
-0.94033
-0.261043
-0.791912
-0.217333
-0.602527
-0.176835
-0.419345
-0.174132
-0.175219
-0.258452
-0.00693243
-0.494292
0.222225
-0.827038
0.530834
-1.21155
0.771072
-1.51407
0.801264
-1.61677
0.4518
-1.56614
-0.127529
-1.38078
-0.722373
-1.16304
-0.974008
-0.85743
-1.10998
-0.475119
-1.08534
-0.182888
-0.787148
-0.00526558
-0.22339
0.127693
0.21791
0.162747
0.378798
0.0937252
0.425157
0.0229048
0.544305
-0.0715614
0.865934
-0.122193
0.680476
0.0514826
-0.104412
0.230593
-0.128963
0.215355
-0.19501
0.298522
-0.279476
0.45908
-0.363391
0.775248
-0.535056
1.43847
-0.723474
2.24757
-0.838832
2.96941
-0.838232
3.46166
-0.766363
3.51165
-0.794
3.9712
-0.604195
4.7588
-0.0268661
2.60769
0.202827
0.748351
0.154504
-0.38043
-0.158385
-0.350509
-0.713402
0.447706
-2.14917
2.52342
-3.90717
5.14911
-4.56463
5.98844
-3.89715
4.52061
-3.06314
3.1771
-2.64774
3.13905
-2.09926
3.04387
-1.43477
3.02993
-0.814447
3.05657
-0.56986
3.58556
-0.822154
5.29386
-0.605462
5.43463
0.679555
-0.529099
0.0898547
-5.6541
-2.75874
2.80536
-4.37732
5.77886
-4.18752
1.83489
-3.22536
-0.72089
-1.6886
-3.3838
-0.225813
-5.08278
0.0698252
-5.9995
-0.344389
-5.80285
-1.36199
-5.55235
-1.88443
-5.63077
-1.63835
-4.16185
-1.50056
-2.90748
-1.22943
-3.07907
-0.548555
-3.1208
0.148739
-1.94055
0.238415
-2.32179
0.641866
-3.59731
0.870504
0.0499742
0.335413
2.42239
-0.551499
1.49895
-1.14793
-0.409567
-1.35529
-1.49873
-1.36789
-1.78395
-1.33644
-1.99292
-1.30497
-2.33417
-1.29085
-2.25923
-1.15175
-1.98132
-1.041
-1.84884
-0.954614
-1.92703
-0.862614
-1.91849
-0.742328
-1.79514
-0.631884
-1.61902
-0.569489
-1.37103
-0.507768
-1.07422
-0.432905
-0.76617
-0.35834
-0.655693
-0.309856
-0.544638
-0.270825
-0.448387
-0.256138
-0.469585
-0.260014
-0.539095
-0.287474
-0.540049
-0.336379
-0.652107
-0.404073
-0.846316
-0.448099
-0.909448
-0.455392
-0.933046
-0.446153
-0.801169
-0.432182
-0.616513
-0.413223
-0.438323
-0.437642
-0.150814
-0.583553
0.138961
-0.868112
0.506769
-1.22412
0.886822
-1.66279
1.20974
-1.97488
1.11334
-1.99612
0.473033
-1.89449
-0.22916
-1.74194
-0.874916
-1.44836
-1.26756
-1.06973
-1.48857
-0.719236
-1.43574
-0.454491
-1.05176
-0.206968
-0.470717
-0.0445062
0.0557149
-0.0108465
0.345521
-0.0296993
0.444503
-0.107734
0.622969
-0.160584
0.919382
-0.165627
0.685946
0.0624311
-0.101891
0.337474
-0.125919
0.23936
-0.212567
0.385142
-0.353687
0.600162
-0.490766
0.912274
-0.633706
1.58133
-0.736372
2.35012
-0.724741
2.95766
-0.603932
3.34073
-0.512137
3.41975
-0.462434
3.92137
-0.162205
4.45843
0.373176
2.07219
0.45616
0.665301
0.278814
-0.203129
-0.0828197
0.0110805
-1.04574
1.41057
-3.03326
4.51087
-4.2385
6.35421
-3.50324
5.25303
-2.54421
3.56151
-2.0799
2.71277
-1.55328
2.61241
-0.890186
2.38077
-0.0978994
2.23764
0.564603
2.39407
0.8016
3.34856
0.799075
5.29638
1.1859
5.0478
2.38661
-1.72981
2.21793
-5.48543
0.926982
4.0963
-1.54312
8.24892
-3.65482
3.94655
-3.3492
-1.02655
-1.78043
-4.9526
-0.254504
-6.60872
0.47773
-6.73174
0.495394
-5.82051
-0.669911
-4.38704
-1.88431
-4.41637
-1.99453
-4.05164
-1.85036
-3.05166
-1.39004
-3.53941
-0.463603
-4.04724
0.433094
-2.83725
0.591046
-2.47974
0.942083
-3.94834
1.28986
-0.297782
0.914434
2.79783
0.0436758
2.36974
-0.634912
0.269065
-0.976697
-1.15689
-1.04882
-1.71179
-1.0567
-1.98501
-1.16278
-2.22806
-1.11816
-2.30385
-1.01895
-2.08053
-0.922697
-1.94511
-0.862273
-1.98746
-0.803963
-1.97681
-0.687121
-1.91199
-0.585158
-1.72099
-0.522071
-1.43412
-0.478411
-1.11789
-0.410929
-0.833654
-0.353423
-0.713206
-0.29683
-0.601237
-0.257454
-0.487773
-0.253247
-0.473797
-0.268512
-0.523838
-0.274132
-0.534432
-0.375397
-0.550847
-0.529626
-0.692089
-0.598818
-0.840266
-0.63674
-0.895133
-0.661131
-0.776796
-0.672151
-0.605504
-0.688244
-0.422246
-0.718123
-0.120946
-0.905175
0.325998
-1.23758
0.839165
-1.63062
1.27985
-2.05591
1.63502
-2.28432
1.34174
-2.27261
0.461324
-2.14294
-0.358838
-1.91378
-1.10407
-1.61622
-1.56509
-1.30789
-1.79685
-0.933532
-1.81001
-0.622623
-1.36254
-0.381197
-0.711947
-0.21728
-0.107929
-0.165502
0.294135
-0.186529
0.466036
-0.246213
0.683304
-0.25613
0.929916
-0.258921
0.689178
0.0755741
-0.094324
0.436787
-0.124547
0.26956
-0.232157
0.492723
-0.400515
0.76848
-0.563767
1.07547
-0.693379
1.71085
-0.687813
2.34444
-0.564472
2.8342
-0.422033
3.19819
-0.306463
3.30408
-0.187699
3.80249
0.197376
4.07321
0.695767
1.57368
0.702482
0.658526
0.431708
0.0676039
-0.182172
0.624918
-1.67213
2.90047
-3.09866
5.93732
-3.12273
6.37813
-2.35046
4.48065
-1.70617
2.91719
-1.23748
2.24406
-0.501109
1.87603
0.226492
1.65316
0.866727
1.5974
1.54772
1.71308
1.79432
3.10196
1.94207
5.14863
2.61877
4.3711
4.01149
-3.12254
3.39904
-4.87299
1.8894
5.60591
0.484431
9.65386
-0.981522
5.41247
-1.37276
-0.635341
-0.639793
-5.68559
0.505879
-7.7544
0.926095
-7.15195
0.695115
-5.58952
-0.214294
-3.47762
-1.7749
-2.85575
-2.53037
-3.29618
-2.40244
-3.1796
-1.54719
-4.39468
-0.401179
-5.19327
0.622668
-3.8611
0.796032
-2.6531
1.09379
-4.24609
1.6597
-0.863682
1.3352
3.12236
0.603183
3.10177
-0.174602
1.04689
-0.593073
-0.738374
-0.746877
-1.55794
-0.86651
-1.86534
-0.897749
-2.19679
-0.900936
-2.30065
-0.859539
-2.12193
-0.808882
-1.99578
-0.845473
-1.95088
-0.769474
-2.05282
-0.656218
-2.02526
-0.552433
-1.82479
-0.491774
-1.49478
-0.450254
-1.15942
-0.398633
-0.885278
-0.390881
-0.720966
-0.319245
-0.672877
-0.278301
-0.528727
-0.310639
-0.441464
-0.312041
-0.522445
-0.352732
-0.493742
-0.495636
-0.407948
-0.639418
-0.548308
-0.771606
-0.708087
-0.857989
-0.808757
-0.90478
-0.730019
-0.935445
-0.574848
-0.937766
-0.419938
-1.05256
-0.00615605
-1.30063
0.574054
-1.60431
1.14283
-1.97487
1.6504
-2.3371
1.99724
-2.5069
1.51154
-2.45545
0.409868
-2.23135
-0.582931
-2.01899
-1.31642
-1.80508
-1.77899
-1.46501
-2.13687
-1.08172
-2.19321
-0.781001
-1.66312
-0.544818
-0.947934
-0.392893
-0.259579
-0.337753
0.239396
-0.366443
0.495251
-0.427641
0.745179
-0.425127
0.928028
-0.372731
0.637225
0.0764488
-0.0973392
0.539115
-0.158634
0.330831
-0.293176
0.627234
-0.441348
0.916609
-0.581685
1.21574
-0.681916
1.81099
-0.588158
2.25058
-0.417632
2.66358
-0.276331
3.0568
-0.114841
3.1425
0.0341287
3.65341
0.480018
3.62717
0.947907
1.10569
0.898102
0.708279
0.571303
0.394364
-0.376815
1.57299
-2.37353
4.89713
-3.06879
6.63246
-2.10842
5.41763
-1.54951
3.92168
-1.17489
2.54255
-0.458826
1.52798
0.296652
1.12054
0.807803
1.14201
1.46398
0.94122
2.1374
1.03966
2.10019
3.13917
2.13943
5.10938
3.54858
2.96195
5.12185
-4.69583
3.71094
-3.46209
2.43158
6.88525
1.67042
10.415
1.03924
6.04361
0.628017
-0.224138
0.745765
-5.80335
1.3931
-8.40173
1.73783
-7.49668
1.24478
-5.09646
0.297709
-2.53053
-1.74689
-0.81114
-3.37484
-1.66823
-2.97904
-3.57541
-1.66127
-5.71246
-0.413588
-6.44096
0.661789
-4.93648
0.88711
-2.87842
1.02719
-4.38616
1.73048
-1.56695
1.59479
3.25806
0.981685
3.7149
0.278997
1.74961
-0.227262
-0.232075
-0.517027
-1.26813
-0.58017
-1.80216
-0.637903
-2.13904
-0.691647
-2.2469
-0.698964
-2.11462
-0.750283
-1.94447
-0.711878
-1.9893
-0.673184
-2.09153
-0.60424
-2.09421
-0.517434
-1.9116
-0.474046
-1.53817
-0.429559
-1.20391
-0.387102
-0.927737
-0.326056
-0.782021
-0.321979
-0.676958
-0.344876
-0.50584
-0.338126
-0.448218
-0.366825
-0.493753
-0.43679
-0.423779
-0.543762
-0.300982
-0.760962
-0.33111
-0.961754
-0.507305
-1.103
-0.667517
-1.17268
-0.660351
-1.21915
-0.528382
-1.26158
-0.377525
-1.3813
0.113561
-1.62409
0.816839
-1.96455
1.48328
-2.3538
2.03965
-2.62625
2.26968
-2.6715
1.55678
-2.50679
0.245161
-2.26916
-0.820562
-2.07993
-1.50564
-1.84642
-2.01247
-1.5553
-2.42794
-1.23478
-2.51364
-0.932999
-1.96478
-0.694966
-1.18577
-0.561562
-0.392705
-0.527825
0.206069
-0.582311
0.550275
-0.624797
0.788361
-0.529591
0.833457
-0.426199
0.534287
0.0858093
-0.10938
0.653484
-0.193649
0.415076
-0.335451
0.769005
-0.472759
1.05387
-0.581305
1.32422
-0.609331
1.83893
-0.483996
2.12515
-0.290431
2.46993
-0.129982
2.89627
0.0392181
2.97321
0.325645
3.36686
0.843318
3.10936
1.1956
0.753304
1.07255
0.831279
0.566596
0.900286
-0.727167
2.86671
-1.9529
6.12278
-2.02988
6.70933
-1.52081
4.90846
-1.02494
3.42577
-0.532839
2.05043
0.214255
0.780873
0.811149
0.523632
1.12564
0.827508
1.39602
0.670833
1.83753
0.598145
2.49208
2.48461
2.31704
5.28441
3.64091
1.63806
5.46485
-6.51979
3.7929
-1.79015
2.14832
8.5298
1.93856
10.6247
2.24323
5.73891
2.01365
0.00542428
1.82187
-5.61157
1.98372
-8.56358
1.96173
-7.47468
1.46157
-4.59628
0.707688
-1.77663
-1.47977
1.37633
-3.41877
0.270782
-2.94076
-4.05342
-1.6705
-6.98273
-0.511127
-7.60034
0.554268
-6.00188
0.79172
-3.11587
0.762898
-4.35734
1.56784
-2.37189
1.70289
3.12302
1.29418
4.12363
0.587362
2.45645
0.0867521
0.268572
-0.177828
-1.00351
-0.364076
-1.61588
-0.423311
-2.07979
-0.496417
-2.17379
-0.592976
-2.01807
-0.571123
-1.96634
-0.573782
-1.98665
-0.577061
-2.08826
-0.53794
-2.13334
-0.545375
-1.90417
-0.480567
-1.60298
-0.381269
-1.30321
-0.366028
-0.942981
-0.38451
-0.763546
-0.359107
-0.702365
-0.368749
-0.496206
-0.426735
-0.390236
-0.447773
-0.472722
-0.531003
-0.340549
-0.664427
-0.167563
-0.872847
-0.122691
-1.17523
-0.204933
-1.39076
-0.451994
-1.45222
-0.598899
-1.46853
-0.512078
-1.55784
-0.288216
-1.7037
0.259414
-1.93779
1.05092
-2.29579
1.84128
-2.67235
2.41619
-2.84367
2.441
-2.73314
1.44625
-2.51364
0.0256628
-2.27167
-1.06253
-2.06061
-1.71669
-1.85607
-2.21699
-1.62115
-2.6628
-1.31467
-2.82004
-1.04305
-2.23628
-0.849653
-1.37898
-0.73479
-0.507291
-0.734996
0.206696
-0.801951
0.61779
-0.837873
0.825003
-0.717436
0.713657
-0.508886
0.326203
0.0340346
-0.109425
0.767898
-0.205922
0.511548
-0.356598
0.919648
-0.485767
1.183
-0.563147
1.40154
-0.524715
1.80042
-0.382194
1.98254
-0.199049
2.28671
0.00822957
2.68892
0.223307
2.75806
0.516993
3.07307
1.08165
2.54456
1.41559
0.419275
1.19658
1.05025
0.639352
1.45748
-0.983645
4.48967
-1.72865
6.86769
-1.25826
6.23883
-0.969959
4.6201
-0.570813
3.0266
0.0525334
1.42706
0.631479
0.201912
0.690816
0.464284
0.346328
1.17199
-0.0809974
1.09815
0.552484
-0.0353466
2.10731
0.929765
3.26975
4.12195
5.09304
-0.185247
5.18842
-6.61519
2.78597
0.612293
1.10154
10.2142
1.74932
9.97688
2.91871
4.56948
3.31121
-0.387092
2.98574
-5.28611
2.35266
-7.93049
1.62503
-6.74702
0.791641
-3.76287
0.33314
-1.31811
-1.07274
2.78223
-2.55375
1.7518
-2.32837
-4.2788
-1.53724
-7.77387
-0.682236
-8.45535
0.441385
-7.1255
0.795332
-3.46982
0.383036
-3.94503
1.09158
-3.08042
1.68458
2.53003
1.44962
4.3586
0.84182
3.06428
0.394152
0.716271
0.181501
-0.790829
-0.00955982
-1.4248
-0.230192
-1.85915
-0.32578
-2.07821
-0.309862
-2.03399
-0.37256
-1.90366
-0.439495
-1.91973
-0.485573
-2.0422
-0.540323
-2.07859
-0.556609
-1.8879
-0.494938
-1.66465
-0.422988
-1.37517
-0.386397
-0.979573
-0.398633
-0.751317
-0.444925
-0.656077
-0.423999
-0.51714
-0.453523
-0.360715
-0.557659
-0.368593
-0.640515
-0.257693
-0.794915
-0.0131682
-1.03677
0.119166
-1.3667
0.12498
-1.68446
-0.134237
-1.83186
-0.451508
-1.84483
-0.499107
-1.86699
-0.266057
-1.98648
0.378896
-2.18575
1.25019
-2.57304
2.22856
-2.91616
2.75931
-2.95257
2.47742
-2.72231
1.21598
-2.43525
-0.261394
-2.18497
-1.31281
-1.99733
-1.90432
-1.82655
-2.38774
-1.63249
-2.85682
-1.39703
-3.05542
-1.16361
-2.46957
-0.988452
-1.55394