/*--------------------------------*- C++ -*----------------------------------*\
| =========                 |                                                 |
| \\      /  F ield         | foam-extend: Open Source CFD                    |
|  \\    /   O peration     | Version:     5.0                                |
|   \\  /    A nd           | Web:         http://www.foam-extend.org         |
|    \\/     M anipulation  |                                                 |
\*---------------------------------------------------------------------------*/
FoamFile
{
    version     2.0;
    format      ascii;
    class       volVectorField;
    location    "0.075";
    object      U;
}
// * * * * * * * * * * * * * * * * * * * * * * * * * * * * * * * * * * * * * //

dimensions      [0 1 -1 0 0 0 0];

internalField   nonuniform List<vector> 
4000
(
(7.27054 -1.97586 0)
(11.8189 1.93785 0)
(-2.67497 2.22094 0)
(-15.4383 1.73912 0)
(-26.3342 2.19073 0)
(-40.6668 2.35757 0)
(-62.8699 3.32129 0)
(-94.0422 3.69824 0)
(-133.252 6.01504 0)
(-188.777 4.18213 0)
(-204.944 4.89093 0)
(-274.199 12.5095 0)
(-373.198 18.5373 0)
(-559.01 21.379 0)
(-732.344 20.2832 0)
(-855.689 7.91889 0)
(-843.786 -0.142759 0)
(-871.644 2.72946 0)
(-828.668 3.99385 0)
(-897.744 2.82686 0)
(-904.556 1.30051 0)
(-883.032 -7.92497 0)
(-874.103 -8.92732 0)
(-805.328 -4.71481 0)
(-752.655 -2.36777 0)
(-780.963 5.15967 0)
(-754.872 6.19026 0)
(-857.325 13.8892 0)
(-1011.58 16.7678 0)
(-1183.2 13.5324 0)
(-1166.42 -6.28196 0)
(-1084.79 2.66959 0)
(-1004.46 -3.22697 0)
(-906.469 -8.40507 0)
(-957.272 4.18094 0)
(-1047.45 -2.901 0)
(-1109.32 -0.228823 0)
(-1169.43 -3.16391 0)
(-1185.19 -12.4041 0)
(-1055.89 -12.6315 0)
(-971.422 -10.4468 0)
(-861.699 -18.1362 0)
(-769.686 -11.5525 0)
(-753.856 -6.05805 0)
(-728.797 0.205467 0)
(-755.751 15.8671 0)
(-761.968 5.23208 0)
(-705.958 5.02944 0)
(-732.489 0.892374 0)
(-674.414 -10.1471 0)
(-631.153 -9.42828 0)
(-548.981 -17.1767 0)
(-481.53 -15.1982 0)
(-395.838 -9.84269 0)
(-347.122 -6.32277 0)
(-300.317 -8.60971 0)
(-234.13 -7.57605 0)
(-188.704 -2.42161 0)
(-174.075 -2.65344 0)
(-131.464 -3.54762 0)
(-120.817 -2.86322 0)
(-85.8124 -2.31009 0)
(-82.3323 -0.107728 0)
(-71.7397 -0.579684 0)
(-56.9812 -1.35868 0)
(-49.4617 -2.18019 0)
(-38.8408 -0.576838 0)
(-34.9929 0.066508 0)
(-36.1652 -0.378278 0)
(-34.4578 -0.702207 0)
(-27.0034 -0.386043 0)
(-26.848 -0.206013 0)
(-20.1034 -1.34621 0)
(-7.30431 -1.92304 0)
(9.51663 -1.65218 0)
(21.4638 -1.61332 0)
(32.6078 -0.905798 0)
(37.5243 -0.419919 0)
(39.0413 -0.102786 0)
(38.2202 0.190575 0)
(36.9938 -0.20914 0)
(36.0945 -0.427805 0)
(46.4227 -1.0846 0)
(56.7248 -2.14582 0)
(75.9531 -2.45457 0)
(92.6132 -1.29511 0)
(94.1819 0.035569 0)
(93.1649 0.415406 0)
(95.0037 0.130331 0)
(87.7923 0.961096 0)
(86.8429 1.10672 0)
(74.4239 1.35758 0)
(62.2886 1.81342 0)
(49.1298 0.674781 0)
(45.2199 -0.0914373 0)
(45 0.230081 0)
(44.2027 -0.278027 0)
(47.1134 -0.602068 0)
(50.0113 -0.531508 0)
(57.209 -1.01521 0)
(7.4822 -5.74072 0)
(16.9843 5.00696 0)
(-4.37306 5.89961 0)
(-24.846 4.52502 0)
(-29.5563 5.66473 0)
(-52.0078 8.98945 0)
(-106.249 12.6077 0)
(-155.231 15.0849 0)
(-186.414 18.2835 0)
(-280.528 17.8373 0)
(-342.826 19.2614 0)
(-421.277 31.7602 0)
(-627.479 60.3214 0)
(-860.621 82.6286 0)
(-1068.86 57.9602 0)
(-1088.47 16.8295 0)
(-1053.48 -1.69644 0)
(-1055.5 -1.2224 0)
(-1085.69 6.32163 0)
(-1040.19 6.64041 0)
(-1007.87 -8.03948 0)
(-889.152 -13.4802 0)
(-928.358 -12.0123 0)
(-945.191 -17.8509 0)
(-933.187 -10.1852 0)
(-955.378 1.38429 0)
(-1061.58 22.3194 0)
(-1227.41 52.9699 0)
(-1455.67 63.7544 0)
(-1593.21 28.4566 0)
(-1624.47 -22.8343 0)
(-1468.3 -45.7067 0)
(-1381.26 -36.4485 0)
(-1331.17 -1.1986 0)
(-1398.71 25.6292 0)
(-1455.68 34.672 0)
(-1597.99 34.3568 0)
(-1718.7 13.9399 0)
(-1683.79 -25.4926 0)
(-1572.02 -47.3697 0)
(-1367.05 -42.6037 0)
(-1274.77 -33.6209 0)
(-1162.75 -26.182 0)
(-1073.84 -8.01266 0)
(-1093.51 8.8198 0)
(-1133.76 -1.91832 0)
(-1038.01 -18.7967 0)
(-967.299 -6.36005 0)
(-903.277 -0.790883 0)
(-916.279 -18.1725 0)
(-817.411 -19.5741 0)
(-797.104 -25.4082 0)
(-716.513 -30.4041 0)
(-670.646 -29.1687 0)
(-566.52 -23.5589 0)
(-520.264 -21.129 0)
(-429.728 -22.3698 0)
(-396.045 -15.6895 0)
(-319.789 -12.7249 0)
(-301.03 -11.7915 0)
(-233.399 -10.1211 0)
(-222.59 -10.0627 0)
(-164.043 -6.91986 0)
(-124.661 -4.7853 0)
(-131.234 -4.23584 0)
(-92.2893 -4.64322 0)
(-105.005 -2.32467 0)
(-73.7423 -1.01673 0)
(-84.6016 -0.619212 0)
(-79.8767 -2.3257 0)
(-60.2956 -1.63143 0)
(-61.4985 -1.49908 0)
(-41.2725 -5.17813 0)
(-15.5121 -7.21461 0)
(19.0743 -7.01845 0)
(46.1367 -5.82231 0)
(67.9186 -3.39261 0)
(81.7108 -1.58959 0)
(85.2517 -0.152482 0)
(87.967 0.880451 0)
(82.6722 -0.354523 0)
(88.7356 -2.16996 0)
(112.344 -5.15336 0)
(137.292 -7.66247 0)
(163.981 -7.18974 0)
(187.042 -4.35935 0)
(196.566 -0.687739 0)
(198.631 1.18427 0)
(198.874 1.03358 0)
(184.324 1.20271 0)
(194.32 2.92512 0)
(172.685 6.15492 0)
(145.063 7.35188 0)
(120.558 3.58356 0)
(104.898 1.15759 0)
(103.705 0.164192 0)
(104.317 -1.53793 0)
(105.632 -1.38505 0)
(101.168 -1.57871 0)
(116.149 -2.96255 0)
(-4.83626 -9.07863 0)
(5.36933 7.67329 0)
(-1.70239 8.88637 0)
(-8.14531 7.7084 0)
(-30.7983 9.83048 0)
(-33.0892 16.2427 0)
(-81.8554 24.0512 0)
(-117.392 27.833 0)
(-197.724 35.1655 0)
(-266.509 39.3038 0)
(-385.098 43.272 0)
(-499.057 68.1985 0)
(-696.414 116.354 0)
(-895.612 136.81 0)
(-995.831 73.926 0)
(-953.883 7.1712 0)
(-945.265 -12.9924 0)
(-908.199 -1.11154 0)
(-916.036 8.11344 0)
(-884.012 -8.04636 0)
(-777.483 -24.0393 0)
(-796.974 -19.8778 0)
(-912.151 3.75775 0)
(-988.926 -1.69263 0)
(-1060.31 -3.79429 0)
(-1043.73 19.9108 0)
(-1166.01 62.5316 0)
(-1290.86 109.233 0)
(-1566.21 117.664 0)
(-1738.34 59.0409 0)
(-1834.2 -32.091 0)
(-1654.48 -79.9051 0)
(-1589.99 -47.7195 0)
(-1597.56 5.4856 0)
(-1548.78 40.9032 0)
(-1659.25 62.535 0)
(-1847.31 67.904 0)
(-1901.89 23.0995 0)
(-1875.41 -48.7268 0)
(-1667.06 -90.4443 0)
(-1474.81 -78.5346 0)
(-1324.46 -60.5112 0)
(-1223.47 -56.0812 0)
(-1173.05 -19.2925 0)
(-1119.25 15.0218 0)
(-1169.32 -6.37144 0)
(-1089.5 -43.3065 0)
(-990.805 -30.8175 0)
(-885.891 -14.2074 0)
(-886.401 -34.6667 0)
(-772.179 -37.0927 0)
(-707.846 -34.2807 0)
(-692.009 -39.1971 0)
(-658.633 -40.5787 0)
(-615.88 -39.0083 0)
(-537.431 -40.1655 0)
(-457.401 -36.679 0)
(-444.961 -27.4441 0)
(-367.288 -24.1131 0)
(-353.283 -23.1021 0)
(-274.778 -20.4923 0)
(-261.765 -19.4147 0)
(-198.891 -17.3709 0)
(-184.79 -11.5516 0)
(-130.653 -10.0051 0)
(-121.352 -7.4675 0)
(-124.754 -4.94313 0)
(-88.2299 -3.77772 0)
(-95.8342 -2.30494 0)
(-72.7217 -4.51293 0)
(-76.229 -3.89408 0)
(-55.6098 -5.3231 0)
(-31.7759 -11.2547 0)
(-11.5623 -15.2562 0)
(30.6 -15.6029 0)
(59.9172 -12.5385 0)
(74.1564 -8.83321 0)
(108.202 -4.52409 0)
(98.5902 -1.35257 0)
(117.143 1.04496 0)
(101.578 -0.947218 0)
(116.773 -5.59241 0)
(136.303 -11.2747 0)
(167.75 -15.6056 0)
(193.994 -13.5723 0)
(203.88 -8.82939 0)
(220.204 -2.93147 0)
(217.027 1.1908 0)
(227.332 2.26682 0)
(209.619 1.49563 0)
(226.826 4.04464 0)
(201.194 10.5845 0)
(196.03 13.6638 0)
(169.542 10.0996 0)
(133.531 5.07595 0)
(124.926 1.18139 0)
(133.319 -1.45271 0)
(124.387 -0.708672 0)
(116.565 -1.36225 0)
(120.089 -5.04602 0)
(-6.6578 -10.8528 0)
(9.1901 9.78485 0)
(-4.29961 11.3779 0)
(-16.5752 9.57956 0)
(-11.6552 12.1964 0)
(-34.8291 21.9215 0)
(-52.3012 34.0932 0)
(-118.243 43.14 0)
(-176.665 54.7141 0)
(-280.966 64.4875 0)
(-383.656 75.2401 0)
(-531.571 106.708 0)
(-727.624 164.213 0)
(-840.457 166.022 0)
(-821.597 69.3901 0)
(-780.737 -4.69644 0)
(-736.929 -18.7984 0)
(-753.516 -4.25927 0)
(-700.498 -1.56564 0)
(-636.811 -24.6804 0)
(-658.931 -25.8615 0)
(-696.769 4.61748 0)
(-909.18 37.8852 0)
(-1001.29 22.2891 0)
(-1096.39 5.2967 0)
(-1128.95 32.7129 0)
(-1192.97 90.6006 0)
(-1401.92 160.805 0)
(-1601.87 176.115 0)
(-1842.68 99.1286 0)
(-1880.22 -37.3649 0)
(-1835.92 -98.3323 0)
(-1809.99 -55.761 0)
(-1807.52 0.849117 0)
(-1712.29 44.4139 0)
(-1876.88 100.047 0)
(-2001.66 96.5402 0)
(-1995.41 23.237 0)
(-1906.63 -80.5333 0)
(-1726.15 -142.524 0)
(-1426.99 -126.714 0)
(-1230.95 -85.1419 0)
(-1185.96 -74.8929 0)
(-1085.09 -31.7323 0)
(-1056.21 14.607 0)
(-1016.54 -9.04797 0)
(-1034.18 -68.4436 0)
(-906.272 -54.2911 0)
(-846.875 -22.5396 0)
(-822.251 -48.9073 0)
(-771.934 -56.2429 0)
(-717.177 -49.1782 0)
(-645.711 -47.719 0)
(-636.37 -51.0238 0)
(-577.163 -51.6639 0)
(-547.881 -53.9267 0)
(-500.863 -47.6235 0)
(-471.504 -38.9463 0)
(-393.984 -36.5543 0)
(-375.075 -35.5215 0)
(-293.448 -32.975 0)
(-263.797 -28.9963 0)
(-239.018 -25.9756 0)
(-181.531 -22.1639 0)
(-128.473 -18.1828 0)
(-126.024 -10.6621 0)
(-106.2 -6.9045 0)
(-110.139 -6.60214 0)
(-86.33 -5.24301 0)
(-82.868 -6.53821 0)
(-80.3918 -6.87162 0)
(-45.4884 -10.9796 0)
(-28.7457 -17.4937 0)
(1.75831 -22.9512 0)
(26.5881 -24.1669 0)
(66.3599 -19.0471 0)
(76.7166 -14.154 0)
(111.466 -8.00913 0)
(104.349 -2.71631 0)
(125.019 1.01667 0)
(109.956 -1.36475 0)
(123.49 -9.08255 0)
(143.037 -17.84 0)
(172.728 -22.7477 0)
(178.846 -17.0454 0)
(186.586 -10.7621 0)
(183.954 -4.72681 0)
(200.306 0.980625 0)
(193.399 1.78057 0)
(203.744 1.00066 0)
(201.738 5.14558 0)
(214.944 13.0157 0)
(190.718 18.6965 0)
(181.852 16.5793 0)
(147.844 10.62 0)
(146.488 2.48306 0)
(136.897 -0.765269 0)
(126.649 2.17092 0)
(101.903 0.00263899 0)
(112.102 -6.2197 0)
(-14.7762 -12.1129 0)
(4.68427 10.5148 0)
(9.15022 12.9265 0)
(-13.1408 11.0226 0)
(-17.1773 14.5666 0)
(-18.6607 26.0158 0)
(-58.687 44.5915 0)
(-99.7942 59.5869 0)
(-187.811 75.2178 0)
(-269.212 90.5373 0)
(-391.147 106.643 0)
(-516.892 144.59 0)
(-732.832 201.722 0)
(-752.309 171.568 0)
(-658.842 54.6765 0)
(-587.686 -13.6963 0)
(-577.545 -24.9562 0)
(-551.321 -9.41079 0)
(-533.612 -13.9923 0)
(-463.421 -26.9028 0)
(-544.345 -10.316 0)
(-642.233 44.9237 0)
(-975.199 83.7607 0)
(-1033.62 45.9855 0)
(-1134.82 23.4266 0)
(-1261.98 52.9427 0)
(-1424.71 125.091 0)
(-1577.72 207.743 0)
(-1750.17 232.463 0)
(-2028.73 134.406 0)
(-2015.76 -35.8234 0)
(-2161.96 -110.993 0)
(-2049.89 -64.7797 0)
(-1921.42 -8.92244 0)
(-1883.82 56.1783 0)
(-2037.95 142.91 0)
(-2157.27 105.391 0)
(-1963.85 -15.2527 0)
(-1729.41 -129.936 0)
(-1545.9 -209.7 0)
(-1291.25 -186.2 0)
(-1125.06 -119.317 0)
(-1025.15 -94.8301 0)
(-982.149 -52.1359 0)
(-869.025 2.5263 0)
(-812.343 -10.0607 0)
(-859.607 -79.4762 0)
(-805.676 -71.2611 0)
(-712.382 -31.663 0)
(-761.467 -54.7606 0)
(-768.822 -68.0464 0)
(-682.418 -64.695 0)
(-646.909 -61.4641 0)
(-572.548 -57.0054 0)
(-565.614 -63.275 0)
(-502.711 -63.5469 0)
(-483.635 -57.892 0)
(-422.525 -50.452 0)
(-402.46 -47.9098 0)
(-343.588 -47.8672 0)
(-314.092 -45.0778 0)
(-272.572 -38.8912 0)
(-214.238 -37.0955 0)
(-166.087 -34.1174 0)
(-148.367 -24.25 0)
(-137.865 -13.8695 0)
(-118.776 -9.03368 0)
(-104.591 -9.0548 0)
(-97.166 -8.50571 0)
(-90.2648 -8.68284 0)
(-66.2395 -11.9359 0)
(-37.4513 -16.675 0)
(-31.7834 -23.1236 0)
(1.68457 -30.2862 0)
(28.6021 -31.036 0)
(47.9504 -25.7523 0)
(79.5976 -19.7508 0)
(89.1482 -11.7082 0)
(109.599 -4.5585 0)
(109.993 0.218782 0)
(116.325 -1.67769 0)
(113.689 -12.1663 0)
(136.016 -23.1706 0)
(154.103 -26.1952 0)
(144.856 -15.5722 0)
(127.116 -10.4976 0)
(127.024 -5.81579 0)
(132.162 -0.970065 0)
(155.301 1.12066 0)
(144.172 -0.948327 0)
(179.08 2.0739 0)
(170.006 13.1937 0)
(189.831 21.8526 0)
(168.247 21.3901 0)
(157.247 14.5803 0)
(134.967 5.50892 0)
(135.046 1.94528 0)
(114.159 6.91129 0)
(86.1453 3.80335 0)
(77.4049 -6.12903 0)
(-24.2926 -11.8875 0)
(-0.57581 9.82647 0)
(8.53056 13.9296 0)
(-6.94234 13.6881 0)
(-3.92966 16.1078 0)
(-29.3357 31.522 0)
(-47.037 54.2781 0)
(-112.218 76.6875 0)
(-189.214 96.6055 0)
(-275.69 115.055 0)
(-381.329 137.206 0)
(-492.721 183.854 0)
(-712.089 229.843 0)
(-596.79 155.8 0)
(-509.417 27.498 0)
(-451.21 -30.2949 0)
(-415.17 -31.2945 0)
(-426.817 -16.938 0)
(-359.69 -20.4777 0)
(-423.835 -18.9556 0)
(-532.983 19.2754 0)
(-691.845 101.571 0)
(-961.122 130.987 0)
(-1077.55 77.9418 0)
(-1276.25 60.1369 0)
(-1452.71 98.0562 0)
(-1725.32 174.806 0)
(-1983.39 252.359 0)
(-1993.11 283.735 0)
(-2091.61 165.384 0)
(-2106.7 7.75302 0)
(-2268.6 -89.2912 0)
(-2107.55 -125.263 0)
(-1972.74 -33.2031 0)
(-2131.31 83.7252 0)
(-2205.54 174.314 0)
(-2000.93 78.3424 0)
(-1691.36 -77.5431 0)
(-1400.49 -191.514 0)
(-1215.53 -255.426 0)
(-1092.16 -236.017 0)
(-876.635 -147.798 0)
(-857.535 -117.183 0)
(-794.055 -72.8414 0)
(-708.297 -14.8705 0)
(-656.334 -15.4618 0)
(-661.209 -87.7733 0)
(-657.072 -89.0896 0)
(-544.215 -28.3601 0)
(-659.72 -44.7299 0)
(-678.224 -73.9371 0)
(-629.309 -77.4642 0)
(-607.962 -76.4305 0)
(-526.627 -67.6518 0)
(-531.569 -71.4024 0)
(-473.184 -73.7026 0)
(-427.841 -67.0816 0)
(-409.106 -58.7908 0)
(-348.666 -56.3742 0)
(-341.22 -58.046 0)
(-275.501 -54.168 0)
(-258.17 -50.1635 0)
(-199.014 -48.5332 0)
(-183.694 -42.8415 0)
(-136.891 -28.7078 0)
(-133.975 -16.2739 0)
(-130.883 -11.5994 0)
(-120.077 -11.4218 0)
(-108.293 -12.2818 0)
(-84.6333 -13.1817 0)
(-70.0273 -18.1091 0)
(-36.5336 -21.4247 0)
(-25.7984 -27.4881 0)
(-11.4108 -36.4866 0)
(6.75631 -37.4694 0)
(38.5169 -31.8133 0)
(51.047 -24.6949 0)
(79.781 -15.3623 0)
(82.4567 -7.78858 0)
(102.026 -0.535746 0)
(98.7663 -2.63797 0)
(106.891 -13.9043 0)
(114.334 -25.5337 0)
(94.636 -25.4847 0)
(76.5172 -12.5971 0)
(57.4638 -5.83035 0)
(29.4974 -7.11911 0)
(65.7398 -6.16372 0)
(95.0066 -1.47454 0)
(86.4047 -3.21025 0)
(114.36 -1.79227 0)
(123.229 9.38259 0)
(159.297 20.5544 0)
(157.711 24.2576 0)
(135.024 18.7881 0)
(131.539 7.74196 0)
(113.89 5.58904 0)
(105.608 12.7428 0)
(52.2152 10.2608 0)
(50.3234 -5.16943 0)
(-33.8597 -9.47509 0)
(-7.94273 8.41025 0)
(2.96124 12.5972 0)
(3.30936 14.7571 0)
(-15.1002 20.1664 0)
(-24.0377 36.3422 0)
(-66.8074 65.1114 0)
(-109.83 92.5835 0)
(-179.888 118.056 0)
(-294.894 140.774 0)
(-362.434 157.988 0)
(-472.139 216.066 0)
(-614.699 234.985 0)
(-429.752 130.879 0)
(-351.234 10.128 0)
(-301.125 -40.0456 0)
(-309.69 -35.347 0)
(-303.896 -22.4298 0)
(-282.396 -12.1506 0)
(-399.29 14.189 0)
(-658.678 69.713 0)
(-874.77 155.341 0)
(-1050.11 170.999 0)
(-1152.35 117.021 0)
(-1333.49 109.471 0)
(-1630.5 174.297 0)
(-2028.09 247.566 0)
(-2005.86 272.539 0)
(-1855.78 284.172 0)
(-2188.93 172.406 0)
(-2342.97 -43.6528 0)
(-1349.39 -231.96 0)
(-1746.28 -135.881 0)
(-1763.69 11.3164 0)
(-2150.31 156.514 0)
(-2148.66 119.069 0)
(-1743.45 -33.1823 0)
(-1323.96 -169.315 0)
(-1036.19 -254.144 0)
(-869.934 -298.145 0)
(-821.157 -271.87 0)
(-633.671 -173.538 0)
(-621.334 -124.346 0)
(-627.462 -88.0835 0)
(-521.452 -33.4198 0)
(-420.43 -16.7579 0)
(-470.697 -89.2277 0)
(-479.365 -100.426 0)
(-364.602 -24.2463 0)
(-517.124 -26.2142 0)
(-564.586 -67.3409 0)
(-591.899 -86.684 0)
(-539.507 -87.5859 0)
(-507.295 -76.1644 0)
(-500.668 -77.6283 0)
(-453.679 -85.9549 0)
(-387.791 -78.082 0)
(-374.4 -68.5913 0)
(-314.554 -64.9125 0)
(-313.346 -66.7513 0)
(-248.268 -65.5769 0)
(-210.039 -59.5236 0)
(-199.774 -55.4559 0)
(-158.555 -49.5377 0)
(-148.368 -33.8895 0)
(-113.876 -19.4435 0)
(-121.588 -13.1379 0)
(-93.9963 -14.4448 0)
(-94.8473 -16.4518 0)
(-68.7224 -18.4111 0)
(-53.5214 -22.8733 0)
(-49.0765 -25.0606 0)
(-33.6024 -30.3715 0)
(-29.8839 -40.8228 0)
(-3.29458 -42.4792 0)
(7.40672 -37.4252 0)
(37.3071 -29.3737 0)
(44.421 -19.8908 0)
(66.3011 -10.5292 0)
(74.6736 -3.17477 0)
(87.1049 -3.92795 0)
(78.2813 -13.6171 0)
(79.4011 -22.4163 0)
(30.852 -19.2115 0)
(1.5072 -4.3345 0)
(-39.6989 -0.114301 0)
(-51.4099 -5.94389 0)
(-57.7525 -13.685 0)
(0.0867828 -8.73367 0)
(30.4139 -6.77876 0)
(40.058 -6.90048 0)
(86.9427 2.83744 0)
(105.178 17.8421 0)
(113.508 24.5241 0)
(118.713 20.4811 0)
(103.719 11.1185 0)
(104.555 8.83343 0)
(71.6587 21.1741 0)
(25.5134 18.1346 0)
(12.0484 -3.21545 0)
(-42.7687 -5.30037 0)
(-15.4049 7.61828 0)
(-8.65445 9.6869 0)
(-2.8365 15.7463 0)
(-11.1577 24.227 0)
(-43.8815 43.5552 0)
(-67.9824 75.4729 0)
(-133.692 108.04 0)
(-193.512 139.949 0)
(-295.574 162.13 0)
(-336.162 180.321 0)
(-433.995 242.866 0)
(-472.969 224.257 0)
(-278.568 99.5335 0)
(-211.446 -9.53001 0)
(-203.856 -41.7669 0)
(-196.081 -33.6521 0)
(-237.313 -18.7805 0)
(-286.109 3.32877 0)
(-441.715 68.1515 0)
(-730.666 134.916 0)
(-1105.77 210.77 0)
(-1095.45 192.577 0)
(-1192.26 156.442 0)
(-1448.1 181.753 0)
(-1779.83 251.319 0)
(-1593.11 261.926 0)
(-1620.45 259.567 0)
(-1512.09 297.158 0)
(-1629.62 210.072 0)
(-1207.38 -135.427 0)
(-547.035 -222.982 0)
(-1420.4 15.0741 0)
(-1799.22 89.4911 0)
(-1739.11 135.685 0)
(-1259.67 64.5397 0)
(-1111.52 -123.678 0)
(-972.03 -267.222 0)
(-691.371 -306.953 0)
(-618.628 -328.939 0)
(-544.944 -290.474 0)
(-448.997 -186.209 0)
(-474.265 -127.27 0)
(-476.426 -99.8175 0)
(-336.799 -55.8672 0)
(-264.308 -21.9924 0)
(-257.893 -91.521 0)
(-270.633 -110.257 0)
(-175.073 -13.7377 0)
(-338.052 4.25374 0)
(-466.136 -54.3548 0)
(-492.101 -85.8568 0)
(-493.194 -95.6404 0)
(-478.738 -81.8554 0)
(-437.035 -85.1173 0)
(-397.717 -98.5842 0)
(-379.044 -88.6272 0)
(-323.254 -76.6567 0)
(-306.386 -72.0663 0)
(-267.346 -76.0406 0)
(-219.476 -75.9927 0)
(-214.008 -66.3902 0)
(-164.028 -61.6062 0)
(-164.448 -54.7972 0)
(-126.107 -39.6334 0)
(-119.961 -23.2183 0)
(-100.378 -16.338 0)
(-80.6871 -17.6257 0)
(-69.305 -19.3267 0)
(-72.0617 -21.689 0)
(-58.4015 -25.1641 0)
(-56.3586 -27.2978 0)
(-34.5352 -32.2346 0)
(-39.0351 -43.323 0)
(-30.2665 -47.0965 0)
(-8.08168 -42.1719 0)
(0.253263 -33.619 0)
(22.8123 -23.1531 0)
(30.6557 -14.3767 0)
(48.2414 -5.70964 0)
(58.3688 -4.85186 0)
(53.1226 -11.0673 0)
(27.6112 -13.0953 0)
(-44.2373 -7.03919 0)
(-97.5984 5.01385 0)
(-127.25 6.52982 0)
(-144.123 -3.67776 0)
(-143.452 -18.2137 0)
(-116.98 -19.5754 0)
(-50.5872 -16.6426 0)
(-9.1269 -15.3208 0)
(15.46 -7.09767 0)
(79.3535 10.1975 0)
(95.0863 23.4137 0)
(86.3485 21.5003 0)
(92.6684 12.3633 0)
(69.0821 14.2652 0)
(41.7851 29.9926 0)
(-1.14639 24.7223 0)
(-7.69266 -0.199885 0)
(-42.3336 -0.956585 0)
(-9.33843 8.0483 0)
(-21.2004 8.47799 0)
(-20.0615 15.9151 0)
(-26.832 28.6022 0)
(-46.7284 51.0353 0)
(-96.5318 86.9516 0)
(-136.654 122.846 0)
(-207.337 159.789 0)
(-266.536 176.291 0)
(-274.898 190.876 0)
(-344.245 247.547 0)
(-325.085 200.849 0)
(-137.062 79.0691 0)
(-108.938 -17.4136 0)
(-101.974 -45.1792 0)
(-141.277 -31.1979 0)
(-175.493 -0.0324749 0)
(-321.045 42.9162 0)
(-612.911 132.929 0)
(-934.795 225.229 0)
(-1174.93 255.352 0)
(-1069.17 192.485 0)
(-1176.23 197.515 0)
(-1213.64 217.967 0)
(-1177.58 235.624 0)
(-921.309 227.383 0)
(-910.949 242.547 0)
(-910.529 272.09 0)
(-889.323 148.743 0)
(-245.693 -263.914 0)
(-456.999 -155.362 0)
(-999.271 111.121 0)
(-1093.37 109.09 0)
(-1023.29 70.7319 0)
(-726.916 -14.5993 0)
(-535.685 -129.02 0)
(-527.676 -286.347 0)
(-502.907 -339.968 0)
(-456.944 -348.077 0)
(-435.29 -304.874 0)
(-358.877 -183.867 0)
(-376.54 -128.034 0)
(-350.271 -116.711 0)
(-242.953 -79.7328 0)
(-136.143 -31.6247 0)
(-119.383 -98.8739 0)
(-74.3854 -125.459 0)
(-22.8217 1.43926 0)
(-137.469 42.0768 0)
(-333.969 -28.1995 0)
(-386.228 -78.1609 0)
(-427.593 -95.2554 0)
(-427.561 -87.1116 0)
(-380.619 -93.0961 0)
(-381.467 -105.567 0)
(-324.256 -98.1553 0)
(-309.165 -84.8733 0)
(-260.389 -79.7097 0)
(-258.131 -84.4579 0)
(-206.733 -83.0792 0)
(-202.889 -72.7599 0)
(-149.636 -67.5299 0)
(-154.6 -59.1786 0)
(-114.358 -45.2605 0)
(-114.966 -27.5883 0)
(-82.4373 -21.4127 0)
(-62.5055 -20.643 0)
(-61.0768 -19.7642 0)
(-69.424 -22.3047 0)
(-59.1886 -26.5209 0)
(-60.457 -29.2031 0)
(-53.6301 -34.1867 0)
(-42.4931 -45.0707 0)
(-38.3942 -48.7353 0)
(-40.7542 -45.328 0)
(-20.0053 -37.0724 0)
(-15.7156 -26.8033 0)
(1.51587 -17.5792 0)
(10.1828 -8.48062 0)
(12.4986 -5.44982 0)
(3.11014 -5.15145 0)
(-40.8683 1.16003 0)
(-125.806 10.3353 0)
(-188.693 17.6612 0)
(-232.148 13.9037 0)
(-252.461 -2.78266 0)
(-221.546 -23.0551 0)
(-196.925 -31.3664 0)
(-129.153 -31.2483 0)
(-63.5532 -27.2586 0)
(-17.3595 -17.9141 0)
(38.7238 1.93597 0)
(49.9168 19.8719 0)
(72.0705 21.4399 0)
(56.4033 15.6653 0)
(38.6217 20.9344 0)
(15.1144 36.6463 0)
(-12.2703 30.0406 0)
(-13.9711 2.05722 0)
(-47.0349 3.87023 0)
(-9.64837 9.14962 0)
(-19.0382 9.80201 0)
(-43.7718 16.8156 0)
(-39.3391 32.0163 0)
(-75.1252 59.0664 0)
(-103.913 97.5795 0)
(-160.411 137.693 0)
(-203.738 171.939 0)
(-207.625 179.379 0)
(-211.131 195.563 0)
(-258.088 251.169 0)
(-190.132 175.669 0)
(-23.0411 56.8909 0)
(0.150979 -25.7661 0)
(-46.4598 -40.7399 0)
(-74.4433 -14.6629 0)
(-191.6 26.577 0)
(-396.154 119.202 0)
(-896.007 225.502 0)
(-1141.66 290.294 0)
(-897.915 215.271 0)
(-855.857 187.991 0)
(-777.238 192.475 0)
(-704.606 201.887 0)
(-591.697 202.852 0)
(-461.728 199.687 0)
(-430.039 251.353 0)
(-609.688 283.891 0)
(-435.009 77.7954 0)
(238.161 -316.609 0)
(-336.214 -73.7255 0)
(-772.454 153.095 0)
(-815.843 95.5011 0)
(-698.05 29.2362 0)
(-440.885 -61.9105 0)
(-235.864 -164.758 0)
(-186.16 -283.82 0)
(-249.836 -325.659 0)
(-350.324 -348.656 0)
(-439.451 -307.216 0)
(-319.646 -186.611 0)
(-304.001 -133.967 0)
(-320.243 -132.884 0)
(-179.341 -105.452 0)
(-86.1346 -47.948 0)
(28.1332 -109.001 0)
(-8.05237 -152.902 0)
(95.9569 18.2525 0)
(50.0636 80.7134 0)
(-192.377 8.16697 0)
(-276.317 -61.4654 0)
(-354.009 -90.1503 0)
(-332.543 -88.9809 0)
(-339.401 -97.7783 0)
(-320.398 -112.005 0)
(-277.676 -108.086 0)
(-246.943 -90.7458 0)
(-246.819 -84.4348 0)
(-210.398 -89.765 0)
(-209.424 -89.0874 0)
(-167.484 -80.854 0)
(-156.5 -72.442 0)
(-124.289 -63.7356 0)
(-122.436 -48.6032 0)
(-94.8625 -32.5594 0)
(-88.9001 -26.9253 0)
(-58.5263 -23.547 0)
(-64.1058 -20.0495 0)
(-52.9471 -22.5268 0)
(-59.8068 -26.9661 0)
(-50.1361 -29.1313 0)
(-62.3019 -35.3682 0)
(-50.6099 -46.4528 0)
(-66.9577 -48.4985 0)
(-57.5124 -46.8424 0)
(-59.3246 -39.0984 0)
(-44.9773 -29.3719 0)
(-42.9554 -20.0718 0)
(-28.2565 -8.90978 0)
(-39.748 -2.76589 0)
(-65.0823 4.53714 0)
(-129.343 18.4471 0)
(-198.831 28.5761 0)
(-288.903 32.4882 0)
(-317.653 20.8829 0)
(-329.109 -3.70023 0)
(-297.683 -30.6279 0)
(-253.761 -43.133 0)
(-212.274 -47.2805 0)
(-130.198 -43.9773 0)
(-64.2581 -32.0645 0)
(-9.3543 -6.73601 0)
(10.8238 14.8331 0)
(41.5169 19.7694 0)
(24.7471 19.5451 0)
(13.0615 25.9388 0)
(2.24376 41.3091 0)
(-39.7204 32.6063 0)
(-15.3823 3.03273 0)
(-51.6624 8.84219 0)
(-12.5832 10.3325 0)
(-25.8618 13.2128 0)
(-51.9724 20.2474 0)
(-61.4499 35.7426 0)
(-83.3219 66.6786 0)
(-131.9 106.961 0)
(-160.17 146.62 0)
(-175.444 174.845 0)
(-156.009 178.007 0)
(-144.603 199.172 0)
(-187.192 242.775 0)
(-65.506 143.649 0)
(49.1516 42.0333 0)
(61.0687 -18.3329 0)
(5.91105 -23.714 0)
(-74.3887 3.66654 0)
(-219.048 81.6137 0)
(-644.001 218.693 0)
(-912.113 306.129 0)
(-904.273 244.239 0)
(-657.95 174.283 0)
(-568.257 167.857 0)
(-495.78 170.026 0)
(-348.856 169.902 0)
(-225.887 169.738 0)
(-93.2601 187.683 0)
(-108.901 254.638 0)
(-285.928 274.628 0)
(-22.1004 -0.231469 0)
(460.177 -294.331 0)
(-373.868 110.011 0)
(-849.392 282.863 0)
(-946.518 71.6387 0)
(-736.337 -41.4026 0)
(-539.474 -149.738 0)
(-90.573 -210.814 0)
(32.2068 -285.832 0)
(1.27464 -295.437 0)
(-139.319 -310.261 0)
(-448.068 -306.489 0)
(-320.264 -204.06 0)
(-301.587 -140.438 0)
(-312.16 -145.27 0)
(-186.268 -137.135 0)
(-39.3363 -77.0073 0)
(123.536 -113.798 0)
(9.19317 -172.933 0)
(184.585 12.6739 0)
(173.253 106.512 0)
(-30.5837 51.6648 0)
(-184.801 -36.5993 0)
(-278.298 -82.4535 0)
(-265.234 -89.8854 0)
(-281.876 -99.325 0)
(-254.147 -116.559 0)
(-266.483 -113.73 0)
(-252.053 -95.5888 0)
(-207.687 -89.5475 0)
(-209.059 -94.7221 0)
(-173.735 -94.0329 0)
(-169.836 -86.4938 0)
(-128.282 -78.3365 0)
(-126.015 -67.0052 0)
(-101.282 -52.6658 0)
(-100.572 -36.3077 0)
(-73.9175 -31.2158 0)
(-70.3039 -26.0842 0)
(-51.8023 -21.1861 0)
(-56.2405 -22.8984 0)
(-47.5324 -27.2781 0)
(-58.0172 -27.7033 0)
(-53.7847 -34.1101 0)
(-78.8927 -44.4864 0)
(-83.7535 -47.0927 0)
(-96.4724 -47.254 0)
(-86.862 -40.3666 0)
(-91.1134 -30.5838 0)
(-82.9387 -21.8726 0)
(-82.932 -8.40624 0)
(-90.2158 2.76896 0)
(-144.81 18.0158 0)
(-199.536 34.7631 0)
(-287.08 48.6049 0)
(-380.81 47.799 0)
(-411.087 23.6784 0)
(-386.551 -8.06605 0)
(-371.242 -39.799 0)
(-325.634 -56.0435 0)
(-254.015 -65.0975 0)
(-173.064 -63.2556 0)
(-119.637 -46.0987 0)
(-62.9457 -17.1526 0)
(-15.9002 6.81271 0)
(-0.259565 18.1918 0)
(-3.34328 22.054 0)
(-7.5277 29.3925 0)
(-28.5888 45.1255 0)
(-46.6415 34.7103 0)
(-26.6095 2.79529 0)
(-54.7355 14.2536 0)
(-9.08027 11.1449 0)
(-27.5539 16.5226 0)
(-57.0798 26.0561 0)
(-86.2544 42.0186 0)
(-109.888 75.8314 0)
(-144.145 117.814 0)
(-153.556 150.065 0)
(-136.059 170.267 0)
(-101.133 174.115 0)
(-98.5081 197.378 0)
(-99.8712 231.882 0)
(23.2461 116.133 0)
(122.14 32.5018 0)
(89.3751 -16.939 0)
(25.2375 -12.5278 0)
(-64.1459 40.3255 0)
(-362.48 173.851 0)
(-853.3 303.555 0)
(-837.411 283.632 0)
(-554.796 195.77 0)
(-464.582 146.759 0)
(-368.346 147.432 0)
(-258.545 136.716 0)
(-102.732 132.756 0)
(70.2689 139.103 0)
(165.148 171.385 0)
(174.073 266.031 0)
(53.9932 254.683 0)
(389.871 -46.8285 0)
(724.015 -277.032 0)
(233.862 170.481 0)
(-15.3472 334.799 0)
(-629.798 148.043 0)
(-850.013 -38.2965 0)
(-505.459 -229.604 0)
(-133.989 -308.366 0)
(65.0001 -326.432 0)
(132.105 -289.084 0)
(67.8114 -241.253 0)
(-386.548 -259.093 0)
(-372.242 -210.522 0)
(-392.595 -148.22 0)
(-359.741 -160.906 0)
(-202.463 -176.161 0)
(7.14814 -118.539 0)
(192.4 -119.504 0)
(79.515 -188.589 0)
(241.814 -2.30293 0)
(272.648 132.462 0)
(108.988 97.4858 0)
(-86.9996 -5.17704 0)
(-172.04 -66.624 0)
(-219.178 -88.5003 0)
(-201.23 -99.8863 0)
(-222.32 -114.554 0)
(-243.226 -114.634 0)
(-204.716 -102.263 0)
(-201.943 -95.5026 0)
(-167.364 -97.8888 0)
(-179.408 -97.8052 0)
(-140.081 -93.1422 0)
(-135.588 -83.6234 0)
(-100.577 -70.0225 0)
(-107.661 -54.6846 0)
(-82.5096 -40.3386 0)
(-82.515 -34.3328 0)
(-60.4875 -28.7157 0)
(-56.3892 -23.4717 0)
(-45.6554 -23.6336 0)
(-57.4206 -26.5509 0)
(-51.9764 -27.0528 0)
(-53.6886 -30.3863 0)
(-94.6865 -39.0374 0)
(-118.439 -44.5571 0)
(-122.131 -46.245 0)
(-133.692 -39.5151 0)
(-130.064 -30.7244 0)
(-140.008 -21.5308 0)
(-136.035 -6.79298 0)
(-149.311 11.0613 0)
(-214.355 33.1823 0)
(-277.827 54.5104 0)
(-371.153 73.329 0)
(-453.909 63.3301 0)
(-462.096 24.1461 0)
(-446.112 -14.8218 0)
(-410.988 -49.4907 0)
(-354.552 -70.6333 0)
(-291.91 -82.5216 0)
(-230.624 -80.729 0)
(-148.606 -60.313 0)
(-100.468 -28.8544 0)
(-48.5344 -1.30281 0)
(-36.345 16.1476 0)
(-29.092 23.0374 0)
(-44.373 32.9135 0)
(-46.0305 46.8302 0)
(-69.2586 34.5525 0)
(-43.2782 2.71707 0)
(-53.5777 18.8136 0)
(-7.48378 12.1865 0)
(-28.1832 21.5291 0)
(-64.2223 34.015 0)
(-97.8622 51.042 0)
(-127.517 83.8918 0)
(-150.376 116.681 0)
(-128.27 145.122 0)
(-96.3251 164.51 0)
(-68.42 167.841 0)
(-49.6358 193.84 0)
(-35.9609 216.621 0)
(99.5574 91.0384 0)
(177.52 34.8583 0)
(131.868 -4.4321 0)
(42.9448 12.1117 0)
(-121.621 100.709 0)
(-558.199 267.35 0)
(-682.811 336.61 0)
(-558.824 242.021 0)
(-374.214 159.932 0)
(-309.004 125.258 0)
(-187.962 114.885 0)
(-20.4518 99.2293 0)
(109.917 97.1904 0)
(247.054 102.485 0)
(385.987 160.741 0)
(340.608 253.353 0)
(312.242 235.772 0)
(763.765 -86.0265 0)
(971.863 -276.471 0)
(422.848 224.338 0)
(216.968 452.81 0)
(-21.5358 252.642 0)
(-378.438 -32.3958 0)
(-221.093 -260.126 0)
(24.0984 -365.146 0)
(225.342 -345.41 0)
(147.577 -288.448 0)
(129.599 -195.244 0)
(-270.699 -188.691 0)
(-435.873 -185.689 0)
(-545.644 -155.155 0)
(-426.136 -193.433 0)
(-197.578 -230.134 0)
(24.6125 -166.248 0)
(251.768 -127.986 0)
(88.0833 -208.498 0)
(312.652 -26.355 0)
(339.814 146.267 0)
(216.492 139.509 0)
(27.9551 32.581 0)
(-102.224 -48.5291 0)
(-135.86 -82.6335 0)
(-163.79 -97.1111 0)
(-185.066 -111.357 0)
(-174.172 -115.478 0)
(-186.085 -105.305 0)
(-156.853 -98.8362 0)
(-166.94 -99.063 0)
(-173.804 -100.876 0)
(-131.391 -98.7544 0)
(-131.474 -88.6797 0)
(-92.2501 -73.3922 0)
(-103.743 -57.1018 0)
(-75.1145 -43.3254 0)
(-84.5353 -35.9767 0)
(-73.9983 -31.7589 0)
(-51.8301 -25.5985 0)
(-58.0726 -23.3556 0)
(-68.5007 -26.3642 0)
(-58.0124 -25.6511 0)
(-79.289 -24.4386 0)
(-117.307 -31.7886 0)
(-138.923 -39.0987 0)
(-171.49 -43.182 0)
(-172.674 -37.8498 0)
(-188.429 -30.1277 0)
(-186.928 -21.5938 0)
(-188.714 -3.9833 0)
(-230.975 22.1406 0)
(-290.839 48.9446 0)
(-348.095 72.3147 0)
(-439.743 89.5684 0)
(-496.01 71.7078 0)
(-509.328 21.9195 0)
(-472.792 -23.4723 0)
(-418.577 -60.4561 0)
(-389.089 -83.6801 0)
(-333.287 -97.5893 0)
(-251.899 -100.371 0)
(-186.931 -75.4996 0)
(-125.344 -42.2785 0)
(-89.1734 -9.1437 0)
(-65.8789 13.3359 0)
(-68.3097 23.7509 0)
(-77.1337 36.0191 0)
(-85.192 47.2331 0)
(-99.11 33.599 0)
(-60.9644 3.81697 0)
(-52.4892 24.7567 0)
(-9.96925 14.9984 0)
(-38.8411 28.2162 0)
(-77.8472 42.8277 0)
(-101.21 55.1425 0)
(-130.747 86.7635 0)
(-142.401 117.946 0)
(-96.6108 138.634 0)
(-68.9213 155.832 0)
(-38.0871 161.804 0)
(-3.09386 187.298 0)
(9.15141 191.13 0)
(164.03 65.5729 0)
(215.368 32.2208 0)
(171.804 8.69571 0)
(59.1762 51.4272 0)
(-218.036 192.858 0)
(-738.425 337.984 0)
(-497.557 282.278 0)
(-332.447 205.756 0)
(-281.311 134.706 0)
(-189.313 100.063 0)
(1.10491 72.3231 0)
(109.236 67.1703 0)
(215.045 61.5936 0)
(384.57 67.1051 0)
(491.143 152.597 0)
(345.892 264.691 0)
(329.707 181.777 0)
(1178.08 -234.295 0)
(1006.75 -199.844 0)
(491.059 316.475 0)
(376.12 503.736 0)
(304.222 300.095 0)
(105.556 -8.68038 0)
(114.755 -273.737 0)
(211.42 -401.995 0)
(394.326 -364.255 0)
(308.347 -262.092 0)
(186.942 -142.286 0)
(-123.277 -88.1792 0)
(-574.634 -138.079 0)
(-743.843 -169.05 0)
(-458.294 -251.963 0)
(-208.477 -290.678 0)
(28.9086 -219.987 0)
(262.719 -138.142 0)
(103.54 -218.756 0)
(284.549 -61.8016 0)
(387.978 162.104 0)
(277.509 172.48 0)
(116.432 69.5825 0)
(-7.04474 -23.8605 0)
(-85.5992 -71.4752 0)
(-123.091 -92.1001 0)
(-111.078 -108.449 0)
(-144.681 -113.947 0)
(-131.185 -106.55 0)
(-146.973 -99.0746 0)
(-155.033 -98.8162 0)
(-130.898 -103.531 0)
(-136.153 -103.261 0)
(-105.529 -93.8451 0)
(-104.905 -76.3412 0)
(-83.8695 -58.8172 0)
(-86.06 -44.8137 0)
(-69.8318 -38.0164 0)
(-62.0258 -34.2531 0)
(-65.1497 -25.8832 0)
(-71.6046 -22.1829 0)
(-65.623 -25.6229 0)
(-82.7782 -23.1585 0)
(-89.1723 -17.7325 0)
(-125.843 -21.8305 0)
(-178.349 -31.3288 0)