/*--------------------------------*- C++ -*----------------------------------*\
| =========                 |                                                 |
| \\      /  F ield         | foam-extend: Open Source CFD                    |
|  \\    /   O peration     | Version:     5.0                                |
|   \\  /    A nd           | Web:         http://www.foam-extend.org         |
|    \\/     M anipulation  |                                                 |
\*---------------------------------------------------------------------------*/
FoamFile
{
    version     2.0;
    format      ascii;
    class       volVectorField;
    location    "0.08";
    object      bodyForce;
}
// * * * * * * * * * * * * * * * * * * * * * * * * * * * * * * * * * * * * * //

dimensions      [0 1 -2 0 0 0 0];

internalField   nonuniform List<vector> 
4000
(
(-1681.46 0 0)
(-413.882 0 0)
(-2970.46 0 0)
(-7633.1 0 0)
(-13207.4 0 0)
(-23109.7 0 0)
(-40346.4 0 0)
(-64162.9 0 0)
(-100000 0 0)
(-142302 0 0)
(-174400 0 0)
(-179834 0 0)
(-147810 0 0)
(-103162 0 0)
(-67312.5 0 0)
(-93885.9 0 0)
(-107353 0 0)
(-143080 0 0)
(-146508 0 0)
(-165842 0 0)
(-171053 0 0)
(-172887 0 0)
(-195699 0 0)
(-237597 0 0)
(-252597 0 0)
(-309736 0 0)
(-337531 0 0)
(-314494 0 0)
(-298107 0 0)
(-317905 0 0)
(-342047 0 0)
(-380777 0 0)
(-396543 0 0)
(-362503 0 0)
(-340518 0 0)
(-337016 0 0)
(-332987 0 0)
(-302220 0 0)
(-298343 0 0)
(-279125 0 0)
(-277581 0 0)
(-275186 0 0)
(-255379 0 0)
(-244234 0 0)
(-210984 0 0)
(-183128 0 0)
(-175090 0 0)
(-127174 0 0)
(-116804 0 0)
(-110802 0 0)
(-119429 0 0)
(-113069 0 0)
(-98537.7 0 0)
(-77917.1 0 0)
(-69395.6 0 0)
(-74570.7 0 0)
(-63669.4 0 0)
(-46775.7 0 0)
(-47425.9 0 0)
(-39878.4 0 0)
(-42996.7 0 0)
(-39108.2 0 0)
(-31182.1 0 0)
(-32880.1 0 0)
(-27063.7 0 0)
(-27126.8 0 0)
(-22621.1 0 0)
(-17524.6 0 0)
(-14105.1 0 0)
(-13300.3 0 0)
(-9167.5 0 0)
(-7678.58 0 0)
(-6082.47 0 0)
(-4695.4 0 0)
(-3705.53 0 0)
(-2374.07 0 0)
(-1689.08 0 0)
(458.522 -0 0)
(298.602 -0 0)
(3245.79 -0 0)
(4670.77 -0 0)
(9698.57 -0 0)
(7461.45 -0 0)
(11144.1 -0 0)
(6153 -0 0)
(20.5356 -0 0)
(7306.42 -0 0)
(-908.605 0 0)
(3295.87 -0 0)
(2404.39 -0 0)
(-9396.35 0 0)
(-6472.53 0 0)
(-9406.94 0 0)
(-2133.4 0 0)
(-5949.75 0 0)
(-2887.89 0 0)
(-2954.91 0 0)
(-7454.49 0 0)
(-9962.02 0 0)
(-8374.53 0 0)
(-4862.08 0 0)
(-2263.74 0 0)
(-4769.16 0 0)
(-12903.1 0 0)
(-21833.9 0 0)
(-33168.8 0 0)
(-50843.9 0 0)
(-84137.5 0 0)
(-105153 0 0)
(-126560 0 0)
(-136300 0 0)
(-101770 0 0)
(-42062.3 0 0)
(26735.5 -0 0)
(20224.6 -0 0)
(-340.555 0 0)
(-35103.4 0 0)
(-50069.5 0 0)
(-90979.6 0 0)
(-107801 0 0)
(-144689 0 0)
(-161107 0 0)
(-168620 0 0)
(-175848 0 0)
(-188537 0 0)
(-202798 0 0)
(-215761 0 0)
(-198822 0 0)
(-186658 0 0)
(-193759 0 0)
(-236796 0 0)
(-265372 0 0)
(-286364 0 0)
(-242774 0 0)
(-251419 0 0)
(-228370 0 0)
(-214794 0 0)
(-216361 0 0)
(-190544 0 0)
(-201957 0 0)
(-192036 0 0)
(-202736 0 0)
(-230601 0 0)
(-193355 0 0)
(-177028 0 0)
(-182525 0 0)
(-170602 0 0)
(-157146 0 0)
(-112305 0 0)
(-118022 0 0)
(-110154 0 0)
(-109008 0 0)
(-99055.2 0 0)
(-103441 0 0)
(-90977.7 0 0)
(-93028.7 0 0)
(-77033.8 0 0)
(-82116.9 0 0)
(-67813 0 0)
(-74702.3 0 0)
(-65422.4 0 0)
(-73605.6 0 0)
(-70075.9 0 0)
(-56626.4 0 0)
(-57334.1 0 0)
(-43299.7 0 0)
(-43946.8 0 0)
(-29392.7 0 0)
(-22943.8 0 0)
(-24266.6 0 0)
(-13283.1 0 0)
(-11245.1 0 0)
(-12514 0 0)
(-8870.47 0 0)
(-7131.49 0 0)
(-4185.63 0 0)
(-7628.36 0 0)
(-2267.51 0 0)
(-4704.58 0 0)
(3941.76 -0 0)
(2526.74 -0 0)
(17150.8 -0 0)
(11048.1 -0 0)
(10256.6 -0 0)
(14536 -0 0)
(1047.68 -0 0)
(7673.14 -0 0)
(-4800.78 0 0)
(-615.154 0 0)
(527.502 -0 0)
(-20281.7 0 0)
(-23926.7 0 0)
(-16305.5 0 0)
(-9961.92 0 0)
(-14133.7 0 0)
(-15496.2 0 0)
(-8080.46 0 0)
(-16910.9 0 0)
(-12529 0 0)
(-21764.4 0 0)
(-6562.21 0 0)
(-4985.47 0 0)
(-5426.31 0 0)
(-12133.5 0 0)
(-18849.2 0 0)
(-24779.8 0 0)
(-36296 0 0)
(-48587.9 0 0)
(-59877.9 0 0)
(-54811.7 0 0)
(-41700 0 0)
(-20271.1 0 0)
(44398 -0 0)
(85760.4 -0 0)
(33914.8 -0 0)
(248.474 -0 0)
(-22574.7 0 0)
(-42498.9 0 0)
(-66361.4 0 0)
(-108895 0 0)
(-123879 0 0)
(-119896 0 0)
(-102339 0 0)
(-91196.3 0 0)
(-118732 0 0)
(-116563 0 0)
(-114493 0 0)
(-98105.9 0 0)
(-89336.1 0 0)
(-94767.1 0 0)
(-137879 0 0)
(-169754 0 0)
(-196072 0 0)
(-173986 0 0)
(-150798 0 0)
(-133978 0 0)
(-144608 0 0)
(-123469 0 0)
(-121784 0 0)
(-129283 0 0)
(-155212 0 0)
(-182173 0 0)
(-188174 0 0)
(-198464 0 0)
(-166275 0 0)
(-161284 0 0)
(-153841 0 0)
(-155978 0 0)
(-117726 0 0)
(-122171 0 0)
(-128208 0 0)
(-106076 0 0)
(-106921 0 0)
(-91112.5 0 0)
(-98343.5 0 0)
(-94460.1 0 0)
(-75376.4 0 0)
(-80270.1 0 0)
(-67716.5 0 0)
(-74099.7 0 0)
(-64718.5 0 0)
(-71203.5 0 0)
(-64295 0 0)
(-71812.6 0 0)
(-65425.5 0 0)
(-45853.9 0 0)
(-49327.1 0 0)
(-33283.1 0 0)
(-32262.5 0 0)
(-20469.7 0 0)
(-15062.2 0 0)
(-20035.3 0 0)
(-12255.6 0 0)
(-13034 0 0)
(-12971.3 0 0)
(-10840 0 0)
(-6242.13 0 0)
(-16409.8 0 0)
(-4208.31 0 0)
(-9455.74 0 0)
(3299.22 -0 0)
(11247.7 -0 0)
(5395.77 -0 0)
(14391.4 -0 0)
(2220.49 -0 0)
(6358.35 -0 0)
(-7031.66 0 0)
(-1484.9 0 0)
(-16811.2 0 0)
(-12191.7 0 0)
(-29736.7 0 0)
(-25357.6 0 0)
(-33694.2 0 0)
(-34065.9 0 0)
(-15542.9 0 0)
(-14400.3 0 0)
(-19130.9 0 0)
(-12143.7 0 0)
(-19672.2 0 0)
(-17980.6 0 0)
(-6548.95 0 0)
(-6874.45 0 0)
(-5982.25 0 0)
(-11740.1 0 0)
(-14948 0 0)
(-19392.3 0 0)
(-23342.8 0 0)
(-26798.1 0 0)
(-18834.5 0 0)
(-9079.64 0 0)
(19260.4 -0 0)
(51230.7 -0 0)
(100086 -0 0)
(116147 -0 0)
(41571.9 -0 0)
(-4173.12 0 0)
(-33136.6 0 0)
(-90410.4 0 0)
(-114813 0 0)
(-144467 0 0)
(-158482 0 0)
(-90741.7 0 0)
(-70247.6 0 0)
(-61679.2 0 0)
(-78745 0 0)
(-69441.5 0 0)
(-48986 0 0)
(-30896.9 0 0)
(-9187.49 0 0)
(-32969.2 0 0)
(-30181.3 0 0)
(-71154.4 0 0)
(-88651.7 0 0)
(-94592.3 0 0)
(-58508.8 0 0)
(-41089.4 0 0)
(-49092.6 0 0)
(-34422.6 0 0)
(-29640.5 0 0)
(-52258.8 0 0)
(-116977 0 0)
(-133633 0 0)
(-170191 0 0)
(-187641 0 0)
(-188846 0 0)
(-145032 0 0)
(-146248 0 0)
(-135652 0 0)
(-120089 0 0)
(-105250 0 0)
(-100496 0 0)
(-112239 0 0)
(-97563.8 0 0)
(-93296.4 0 0)
(-79660.6 0 0)
(-79423.7 0 0)
(-73411.3 0 0)
(-79478.4 0 0)
(-67617 0 0)
(-70849.2 0 0)
(-61130.8 0 0)
(-57938.4 0 0)
(-60580.3 0 0)
(-71885 0 0)
(-63402.9 0 0)
(-47239.2 0 0)
(-50316.3 0 0)
(-41279.5 0 0)
(-31490.2 0 0)
(-23373.6 0 0)
(-20951.8 0 0)
(-21917.2 0 0)
(-14745.9 0 0)
(-15289.7 0 0)
(-14649.5 0 0)
(-19172.7 0 0)
(-12028.8 0 0)
(-20241.9 0 0)
(-8054.12 0 0)
(-13399.4 0 0)
(-101.124 0 0)
(1383.38 -0 0)
(3301.19 -0 0)
(9035.03 -0 0)
(8489.81 -0 0)
(-3223.38 0 0)
(516.37 -0 0)
(-12391.1 0 0)
(-11177.8 0 0)
(-26951.5 0 0)
(-25348.4 0 0)
(-38410.8 0 0)
(-31158.8 0 0)
(-38323.8 0 0)
(-20422 0 0)
(-23514.5 0 0)
(-15259.5 0 0)
(-11364.6 0 0)
(-12629 0 0)
(-25727 0 0)
(-5435.28 0 0)
(-7249.87 0 0)
(-6811.96 0 0)
(-9815.9 0 0)
(-13115 0 0)
(-13933.6 0 0)
(-12642.5 0 0)
(-3293.16 0 0)
(9681.92 -0 0)
(37515.8 -0 0)
(66331.8 -0 0)
(94942.3 -0 0)
(143706 -0 0)
(115285 -0 0)
(36988.1 -0 0)
(-20823.4 0 0)
(-92271.4 0 0)
(-144816 0 0)
(-195114 0 0)
(-210666 0 0)
(-131638 0 0)
(-53418.2 0 0)
(-29839.6 0 0)
(-32224.1 0 0)
(-1408.41 0 0)
(-1026.5 0 0)
(19224.5 -0 0)
(50551.8 -0 0)
(64098.2 -0 0)
(43836 -0 0)
(69179.6 -0 0)
(50816.5 -0 0)
(-38580.7 0 0)
(-19288.2 0 0)
(3805.33 -0 0)
(32065.6 -0 0)
(-24316.4 0 0)
(-26145.1 0 0)
(2482.9 -0 0)
(-51.2702 0 0)
(-37748.4 0 0)
(-97492.7 0 0)
(-133888 0 0)
(-192901 0 0)
(-196395 0 0)
(-154183 0 0)
(-149518 0 0)
(-140928 0 0)
(-107872 0 0)
(-79357.6 0 0)
(-95306 0 0)
(-94189.5 0 0)
(-103339 0 0)
(-87114.5 0 0)
(-86752.1 0 0)
(-76847.7 0 0)
(-83094.1 0 0)
(-75071.4 0 0)
(-75073.8 0 0)
(-68736.5 0 0)
(-71154.6 0 0)
(-62365.8 0 0)
(-69988.3 0 0)
(-57372.7 0 0)
(-55509.7 0 0)
(-50814 0 0)
(-39739.8 0 0)
(-41185.7 0 0)
(-31111.4 0 0)
(-34398.6 0 0)
(-28304.4 0 0)
(-19406.1 0 0)
(-17435 0 0)
(-16369 0 0)
(-18949.9 0 0)
(-17185.8 0 0)
(-20606.3 0 0)
(-14458.3 0 0)
(-16806.3 0 0)
(-6817.44 0 0)
(-6893.74 0 0)
(4692.38 -0 0)
(11784.7 -0 0)
(2247.94 -0 0)
(-1540.48 0 0)
(5061.6 -0 0)
(-5656.66 0 0)
(-4612.91 0 0)
(-22960.6 0 0)
(-21348 0 0)
(-36825.7 0 0)
(-32410.4 0 0)
(-41400.8 0 0)
(-33071.1 0 0)
(-31996.9 0 0)
(-18807 0 0)
(-23949 0 0)
(-16286.5 0 0)
(-22173.5 0 0)
(-24674 0 0)
(-4065.62 0 0)
(-6426.92 0 0)
(-5880.63 0 0)
(-9932.29 0 0)
(-10548.9 0 0)
(-9489.85 0 0)
(-604.87 0 0)
(13235 -0 0)
(40582 -0 0)
(64145 -0 0)
(103777 -0 0)
(134268 -0 0)
(157875 -0 0)
(104663 -0 0)
(-2762.15 0 0)
(-63560.4 0 0)
(-137469 0 0)
(-218285 0 0)
(-255578 0 0)
(-206576 0 0)
(-84644.4 0 0)
(-17998.7 0 0)
(43206.5 -0 0)
(49611 -0 0)
(103202 -0 0)
(136896 -0 0)
(160134 -0 0)
(158949 -0 0)
(144870 -0 0)
(106406 -0 0)
(154494 -0 0)
(138313 -0 0)
(32268.3 -0 0)
(77522.6 -0 0)
(127323 -0 0)
(61559 -0 0)
(11500.9 -0 0)
(-1164.09 0 0)
(5270.97 -0 0)
(35809.6 -0 0)
(-1466.85 0 0)
(-61593.5 0 0)
(-108646 0 0)
(-167557 0 0)
(-207422 0 0)
(-172348 0 0)
(-133404 0 0)
(-139385 0 0)
(-106066 0 0)
(-84173.5 0 0)
(-95996.5 0 0)
(-87264.9 0 0)
(-95763.5 0 0)
(-81962.4 0 0)
(-82474.3 0 0)
(-76534.3 0 0)
(-78074.5 0 0)
(-83860.3 0 0)
(-73240.8 0 0)
(-77283.7 0 0)
(-70023 0 0)
(-70904.8 0 0)
(-61683.8 0 0)
(-59837.3 0 0)
(-49571.1 0 0)
(-42114 0 0)
(-38833.4 0 0)
(-42554.8 0 0)
(-37534.3 0 0)
(-36110.1 0 0)
(-28254.6 0 0)
(-19981 0 0)
(-17278.6 0 0)
(-16565.8 0 0)
(-18183.4 0 0)
(-20895.4 0 0)
(-17030.3 0 0)
(-19614.5 0 0)
(-10849.7 0 0)
(-12204 0 0)
(1604.77 -0 0)
(-983.747 0 0)
(8309.12 -0 0)
(12631.6 -0 0)
(11339.9 -0 0)
(1652.44 -0 0)
(-1547.11 0 0)
(-13495.1 0 0)
(-27407.9 0 0)
(-23437 0 0)
(-28627.7 0 0)
(-33198.1 0 0)
(-44011.2 0 0)
(-41301.1 0 0)
(-27196.1 0 0)
(-26687.2 0 0)
(-18176.5 0 0)
(-24669.6 0 0)
(-20704.6 0 0)
(-28944.2 0 0)
(-3011.14 0 0)
(-4357.8 0 0)
(-5101.73 0 0)
(-9917.54 0 0)
(-8480.9 0 0)
(-2831.1 0 0)
(9000.85 -0 0)
(30325.9 -0 0)
(66371.1 -0 0)
(92722.2 -0 0)
(120454 -0 0)
(160146 -0 0)
(163251 -0 0)
(77244.8 -0 0)
(-26378.3 0 0)
(-83490.3 0 0)
(-199330 0 0)
(-290512 0 0)
(-245213 0 0)
(-99036.7 0 0)
(-2547.05 0 0)
(75073.7 -0 0)
(120987 -0 0)
(170795 -0 0)
(225467 -0 0)
(269615 -0 0)
(259749 -0 0)
(225238 -0 0)
(210481 -0 0)
(218570 -0 0)
(147086 -0 0)
(19570.8 -0 0)
(112679 -0 0)
(198985 -0 0)
(216183 -0 0)
(146536 -0 0)
(36782.5 -0 0)
(32342.3 -0 0)
(27092.1 -0 0)
(51181.7 -0 0)
(16237.7 -0 0)
(-55041.4 0 0)
(-88190.8 0 0)
(-150329 0 0)
(-233318 0 0)
(-179396 0 0)
(-137125 0 0)
(-158059 0 0)
(-157926 0 0)
(-113032 0 0)
(-91074.5 0 0)
(-87786.1 0 0)
(-87293.6 0 0)
(-73577.9 0 0)
(-73073.5 0 0)
(-83887.9 0 0)
(-77740.5 0 0)
(-82473 0 0)
(-74586.5 0 0)
(-79395.2 0 0)
(-76323.6 0 0)
(-67673.3 0 0)
(-64452.6 0 0)
(-56890 0 0)
(-55076.3 0 0)
(-45983.3 0 0)
(-46166.9 0 0)
(-40728.1 0 0)
(-38461.6 0 0)
(-31700.7 0 0)
(-24422.4 0 0)
(-18656 0 0)
(-15649.4 0 0)
(-17650.2 0 0)
(-19795.4 0 0)
(-18794.8 0 0)
(-19901.6 0 0)
(-14439.2 0 0)
(-14389.9 0 0)
(-4780.98 0 0)
(4920.03 -0 0)
(2217.72 -0 0)
(3938.02 -0 0)
(12246.5 -0 0)
(5074.79 -0 0)
(-4776.87 0 0)
(-6406.54 0 0)
(-18689.6 0 0)
(-30932.8 0 0)
(-30527.1 0 0)
(-32181.1 0 0)
(-38012 0 0)
(-33443.1 0 0)
(-29397.2 0 0)
(-29568.7 0 0)
(-19150.4 0 0)
(-23478.2 0 0)
(-20344.7 0 0)
(-21272 0 0)
(-26941.2 0 0)
(-3929.95 0 0)
(-1334.49 0 0)
(-2719.72 0 0)
(-8630.01 0 0)
(-4871.8 0 0)
(3782.09 -0 0)
(23073.7 -0 0)
(53028.4 -0 0)
(87872.4 -0 0)
(115411 -0 0)
(142733 -0 0)
(168317 -0 0)
(167086 -0 0)
(55572.7 -0 0)
(-37443.4 0 0)
(-123957 0 0)
(-256320 0 0)
(-307050 0 0)
(-165076 0 0)
(-39658.4 0 0)
(104911 -0 0)
(175561 -0 0)
(203289 -0 0)
(278825 -0 0)
(344205 -0 0)
(352580 -0 0)
(310957 -0 0)
(277508 -0 0)
(249089 -0 0)
(228156 -0 0)
(17725.7 -0 0)
(-54123.6 0 0)
(196895 -0 0)
(208246 -0 0)
(154297 -0 0)
(31686.9 -0 0)
(20401.4 -0 0)
(53805.9 -0 0)
(64549.9 -0 0)
(75840.6 -0 0)
(44598.9 -0 0)
(-32950 0 0)
(-86976.9 0 0)
(-138518 0 0)
(-217895 0 0)
(-220518 0 0)
(-141891 0 0)
(-167617 0 0)
(-220709 0 0)
(-124541 0 0)
(-122471 0 0)
(-86509.2 0 0)
(-68025.1 0 0)
(-75536.5 0 0)
(-85154.9 0 0)
(-73213.5 0 0)
(-77275.3 0 0)
(-73807.8 0 0)
(-75846.4 0 0)
(-77142.9 0 0)
(-66766.3 0 0)
(-71474 0 0)
(-62339.6 0 0)
(-61639.4 0 0)
(-51211 0 0)
(-48765.9 0 0)
(-51203.6 0 0)
(-43489.8 0 0)
(-35377.1 0 0)
(-27901.5 0 0)
(-21997.8 0 0)
(-23046.5 0 0)
(-16643.1 0 0)
(-17417.9 0 0)
(-19673.2 0 0)
(-19901.7 0 0)
(-17696.2 0 0)
(-16452.2 0 0)
(-10004.5 0 0)
(-6755.21 0 0)
(4053.49 -0 0)
(8197.26 -0 0)
(4314.09 -0 0)
(4681.22 -0 0)
(-7310.97 0 0)
(-5568.45 0 0)
(-16882.3 0 0)
(-17763 0 0)
(-31381.4 0 0)
(-33458.4 0 0)
(-38468 0 0)
(-34519.7 0 0)
(-34373.3 0 0)
(-31416.4 0 0)
(-21034.5 0 0)
(-21856 0 0)
(-16664.9 0 0)
(-16918 0 0)
(-22626.6 0 0)
(-24498 0 0)
(-7594.47 0 0)
(285.514 -0 0)
(554.216 -0 0)
(-4603.8 0 0)
(-2074.27 0 0)
(13191.2 -0 0)
(34299.7 -0 0)
(65598.6 -0 0)
(105026 -0 0)
(136654 -0 0)
(146863 -0 0)
(174161 -0 0)
(153116 -0 0)
(44162.7 -0 0)
(-106263 0 0)
(-175630 0 0)
(-341894 0 0)
(-208838 0 0)
(-77447.2 0 0)
(74160.2 -0 0)
(197652 -0 0)
(271739 -0 0)
(287726 -0 0)
(359072 -0 0)
(361296 -0 0)
(336598 -0 0)
(215021 -0 0)
(195698 -0 0)
(163820 -0 0)
(120615 -0 0)
(-16482.1 0 0)
(-239275 0 0)
(54496.4 -0 0)
(62208.8 -0 0)
(-44718.2 0 0)
(-115608 0 0)
(-62717.9 0 0)
(17274.2 -0 0)
(68717.5 -0 0)
(102255 -0 0)
(88424.1 -0 0)
(-18002.6 0 0)
(-87395.4 0 0)
(-105416 0 0)
(-184729 0 0)
(-233761 0 0)
(-146540 0 0)
(-108661 0 0)
(-244558 0 0)
(-171486 0 0)
(-145396 0 0)
(-94016.1 0 0)
(-71679.6 0 0)
(-79805.3 0 0)
(-74801.6 0 0)
(-74078 0 0)
(-72400.1 0 0)
(-74388.1 0 0)
(-67653.3 0 0)
(-68346.6 0 0)
(-64865.9 0 0)
(-69203.9 0 0)
(-62232.7 0 0)
(-61841.8 0 0)
(-53086.4 0 0)
(-53632.3 0 0)
(-44797.9 0 0)
(-38686.5 0 0)
(-31803 0 0)
(-31462.1 0 0)
(-23658.3 0 0)
(-23507.1 0 0)
(-17681.9 0 0)
(-20131.4 0 0)
(-19299 0 0)
(-19526.3 0 0)
(-18250.8 0 0)
(-16015.2 0 0)
(-13110.7 0 0)
(-5394.84 0 0)
(-616.825 0 0)
(1454.54 -0 0)
(-5717.51 0 0)
(-10773.5 0 0)
(-4256.49 0 0)
(-6555.81 0 0)
(-23539.2 0 0)
(-26688.8 0 0)
(-29529.7 0 0)
(-33705.8 0 0)
(-38782.8 0 0)
(-33733.8 0 0)
(-28841.8 0 0)
(-20750 0 0)
(-21028.8 0 0)
(-14720.8 0 0)
(-12282.8 0 0)
(-15966.6 0 0)
(-24887.4 0 0)
(-22005.2 0 0)
(-6256.83 0 0)
(945.2 -0 0)
(2408.69 -0 0)
(1067.57 -0 0)
(2501.63 -0 0)
(21826.4 -0 0)
(48889.2 -0 0)
(81046.1 -0 0)
(121444 -0 0)
(136785 -0 0)
(145066 -0 0)
(157403 -0 0)
(119272 -0 0)
(12863.2 -0 0)
(-122410 0 0)
(-237743 0 0)
(-302719 0 0)
(-117674 0 0)
(42895.3 -0 0)
(224213 -0 0)
(285582 -0 0)
(281471 -0 0)
(310476 -0 0)
(310663 -0 0)
(291514 -0 0)
(213798 -0 0)
(138484 -0 0)
(101077 -0 0)
(59054.8 -0 0)
(-62490.7 0 0)
(-8684.24 0 0)
(-114305 0 0)
(-56442.1 0 0)
(-81921.9 0 0)
(-131522 0 0)
(-107337 0 0)
(-94208.1 0 0)
(-39325.6 0 0)
(22111.6 -0 0)
(87830.4 -0 0)
(104311 -0 0)
(5336.55 -0 0)
(-65032.3 0 0)
(-74289.5 0 0)
(-115586 0 0)
(-200247 0 0)
(-124618 0 0)
(-41443.5 0 0)
(-244386 0 0)
(-212146 0 0)
(-150651 0 0)
(-107235 0 0)
(-78147.8 0 0)
(-69104 0 0)
(-76669.8 0 0)
(-74357.4 0 0)
(-72393.1 0 0)
(-68118.2 0 0)
(-68356.7 0 0)
(-63183.2 0 0)
(-65620.8 0 0)
(-64571.4 0 0)
(-63852 0 0)
(-59432.1 0 0)
(-56596.1 0 0)
(-50098.2 0 0)
(-46563.5 0 0)
(-35166.2 0 0)
(-33670.2 0 0)
(-29504.3 0 0)
(-27814.7 0 0)
(-21819.1 0 0)
(-22050.1 0 0)
(-17911.6 0 0)
(-19192.9 0 0)
(-18508 0 0)
(-18676.3 0 0)
(-16192.5 0 0)
(-15446.9 0 0)
(-8790.01 0 0)
(-8304.61 0 0)
(-11936.2 0 0)
(-18431.6 0 0)
(-10942 0 0)
(-14160.2 0 0)
(-4013.15 0 0)
(-16976.2 0 0)
(-8928.73 0 0)
(-20297 0 0)
(-31800.1 0 0)
(-34124.7 0 0)
(-30315.4 0 0)
(-24995.1 0 0)
(-13427.7 0 0)
(-15642.8 0 0)
(-10517.7 0 0)
(-10989.1 0 0)
(-18278.5 0 0)
(-26387 0 0)
(-21738.3 0 0)
(-6190.5 0 0)
(3302.23 -0 0)
(3286.66 -0 0)
(7845.14 -0 0)
(9993.01 -0 0)
(34064.8 -0 0)
(60032.6 -0 0)
(96191.6 -0 0)
(123910 -0 0)
(134056 -0 0)
(129272 -0 0)
(145686 -0 0)
(88072.8 -0 0)
(-41533.9 0 0)
(-150138 0 0)
(-299340 0 0)
(-200408 0 0)
(-30894 0 0)
(163202 -0 0)
(279081 -0 0)
(310778 -0 0)
(248130 -0 0)
(246310 -0 0)
(235625 -0 0)
(179266 -0 0)
(129152 -0 0)
(54271.7 -0 0)
(22835.5 -0 0)
(34016.5 -0 0)
(-223177 0 0)
(-21933.8 0 0)
(-7296.26 0 0)
(31116.9 -0 0)
(-63472.9 0 0)
(-27323.1 0 0)
(-8357.77 0 0)
(-16208.8 0 0)
(-2043.02 0 0)
(28136.4 -0 0)
(42560.9 -0 0)
(90932.1 -0 0)
(42015.1 -0 0)
(-36884 0 0)
(-26983.5 0 0)
(-41483.5 0 0)
(-105582 0 0)
(-92051.9 0 0)
(-3947.02 0 0)
(-171589 0 0)
(-184643 0 0)
(-178896 0 0)
(-140556 0 0)
(-77987 0 0)
(-60050.8 0 0)
(-68235.7 0 0)
(-64967.8 0 0)
(-59083.7 0 0)
(-66770.8 0 0)
(-63791 0 0)
(-61739.1 0 0)
(-62294.3 0 0)
(-64967.7 0 0)
(-59187.3 0 0)
(-61475.2 0 0)
(-53835.3 0 0)
(-52858.5 0 0)
(-43326.6 0 0)
(-35089.4 0 0)
(-38290.6 0 0)
(-31673.7 0 0)
(-25928.8 0 0)
(-25030 0 0)
(-21750.9 0 0)
(-17514.6 0 0)
(-16194.4 0 0)
(-19032.1 0 0)
(-16954.4 0 0)
(-19401 0 0)
(-16966.2 0 0)
(-19875 0 0)
(-18047.6 0 0)
(-25296.1 0 0)
(-21935.5 0 0)
(-23511.9 0 0)
(-15850.9 0 0)
(-9471.82 0 0)
(-892.214 0 0)
(-8533.54 0 0)
(-22547.6 0 0)
(-24074.4 0 0)
(-21065.6 0 0)
(-19954.4 0 0)
(-23242.3 0 0)
(-8722.44 0 0)
(-9991.83 0 0)
(-8602.02 0 0)
(-12626 0 0)
(-19142.6 0 0)
(-24606.6 0 0)
(-19225.2 0 0)
(-5982.25 0 0)
(4847.14 -0 0)
(7995.62 -0 0)
(15378.6 -0 0)
(25524.9 -0 0)
(42757.2 -0 0)
(74770.3 -0 0)
(99965.7 -0 0)
(122851 -0 0)
(120365 -0 0)
(116913 -0 0)
(126936 -0 0)
(33913.1 -0 0)
(-81858.9 0 0)
(-151764 0 0)
(-224205 0 0)
(-147467 0 0)
(83250.7 -0 0)
(258313 -0 0)
(292545 -0 0)
(228420 -0 0)
(202015 -0 0)
(171472 -0 0)
(139562 -0 0)
(95711.1 -0 0)
(40099.2 -0 0)
(-48914.3 0 0)
(-68952.8 0 0)
(3562.62 -0 0)
(-46279.5 0 0)
(-63443.2 0 0)
(-234148 0 0)
(27455.1 -0 0)
(45280.4 -0 0)
(2468.14 -0 0)
(11701.1 -0 0)
(24379.7 -0 0)
(41272.1 -0 0)
(60437.1 -0 0)
(12081.9 -0 0)
(44196.5 -0 0)
(70463.8 -0 0)
(21049.2 -0 0)
(33420.2 -0 0)
(20125.1 -0 0)
(-16661.1 0 0)
(-57328.7 0 0)
(12899.8 -0 0)
(-62525.1 0 0)
(-136867 0 0)
(-146902 0 0)
(-142135 0 0)
(-88498.3 0 0)
(-55046.5 0 0)
(-56578 0 0)
(-53485.6 0 0)
(-62466.5 0 0)
(-63137.3 0 0)
(-64780 0 0)
(-57127.8 0 0)
(-62118.5 0 0)
(-63875.9 0 0)
(-57027.2 0 0)
(-60554.7 0 0)
(-56155.6 0 0)
(-51470.4 0 0)
(-40558.1 0 0)
(-37139.1 0 0)
(-36967.1 0 0)
(-27959 0 0)
(-26581.7 0 0)
(-23727.5 0 0)
(-17941 0 0)
(-13346 0 0)
(-16925.8 0 0)
(-15131.1 0 0)
(-19415.5 0 0)
(-16517 0 0)
(-23946.1 0 0)
(-27279.3 0 0)
(-30384 0 0)
(-23316.2 0 0)
(-30680.5 0 0)
(-20314.1 0 0)
(-9675.61 0 0)
(1870.07 -0 0)
(-5791.13 0 0)
(-18926.4 0 0)
(-13056.2 0 0)
(-9848.83 0 0)
(-19593.5 0 0)
(-19438.7 0 0)
(-18621.5 0 0)
(-7058.08 0 0)
(-7910.46 0 0)
(-8043.92 0 0)
(-14607.9 0 0)
(-17567.1 0 0)
(-25262 0 0)
(-14292 0 0)
(-5938.95 0 0)
(5097.57 -0 0)
(9332.07 -0 0)
(22012.1 -0 0)
(38490.6 -0 0)
(56273 -0 0)
(78281.2 -0 0)
(102393 -0 0)
(111939 -0 0)
(110327 -0 0)
(101630 -0 0)
(105499 -0 0)
(-4207.36 0 0)
(-75957.8 0 0)
(-118277 0 0)
(-184612 0 0)
(-38775.5 0 0)
(179545 -0 0)
(292225 -0 0)
(241450 -0 0)
(169559 -0 0)
(126101 -0 0)
(87566.5 -0 0)
(33741.7 -0 0)
(-37028.6 0 0)
(-71765.4 0 0)
(-69877.3 0 0)
(-72444.3 0 0)
(-25160.4 0 0)
(9596.98 -0 0)
(-64483.2 0 0)
(-84690.8 0 0)
(15829 -0 0)
(-58797.1 0 0)
(-189972 0 0)
(-16336.6 0 0)
(50460.6 -0 0)
(51348 -0 0)
(90673 -0 0)
(4648.75 -0 0)
(-42595 0 0)
(79552 -0 0)
(92943.2 -0 0)
(80451.5 -0 0)
(77526.9 -0 0)
(48515.6 -0 0)
(-32280.9 0 0)
(29400.3 -0 0)
(-25308.4 0 0)
(-83162.7 0 0)
(-100561 0 0)
(-133890 0 0)
(-115652 0 0)
(-48343.4 0 0)
(-39653.2 0 0)
(-53935.1 0 0)
(-60051.8 0 0)
(-63217.9 0 0)
(-63716.8 0 0)
(-53777.8 0 0)
(-57179.3 0 0)
(-56199.1 0 0)
(-59324.7 0 0)
(-52934.9 0 0)
(-53446.8 0 0)
(-46746.4 0 0)
(-45063.9 0 0)
(-40620.4 0 0)
(-33709 0 0)
(-26792.3 0 0)
(-28972.1 0 0)
(-20153.4 0 0)
(-13630 0 0)
(-15956.7 0 0)
(-11177.6 0 0)
(-15709.6 0 0)
(-14911.5 0 0)
(-19300.7 0 0)
(-15147.1 0 0)
(-17376 0 0)
(-20627.7 0 0)
(-24608.4 0 0)
(-13574.1 0 0)
(-4218.19 0 0)
(-5316.77 0 0)
(-20386.7 0 0)
(-19329.7 0 0)
(-11821.4 0 0)
(849.733 -0 0)
(-10623.9 0 0)
(-9297.95 0 0)
(-20306.8 0 0)
(-12002 0 0)
(-10879.1 0 0)
(-4324.05 0 0)
(-10872.4 0 0)
(-11429.2 0 0)
(-12920.4 0 0)
(-14898.2 0 0)
(-7251.8 0 0)
(-4956.03 0 0)
(5999.36 -0 0)
(10428.1 -0 0)
(24255.7 -0 0)
(46671.9 -0 0)
(66384.9 -0 0)
(83319.1 -0 0)
(93731.8 -0 0)
(104102 -0 0)
(98227.2 -0 0)
(83582.3 -0 0)
(89666.6 -0 0)
(-17567.8 0 0)
(-56482.2 0 0)
(-110054 0 0)
(-147846 0 0)
(91091.7 -0 0)
(263950 -0 0)
(238023 -0 0)
(176953 -0 0)
(116051 -0 0)
(51890.3 -0 0)
(-27431.3 0 0)
(-113082 0 0)
(-129729 0 0)
(-79375.5 0 0)
(-58762 0 0)
(-15980.8 0 0)
(15347.9 -0 0)
(-33344.9 0 0)
(-71240.2 0 0)
(-36603.1 0 0)
(36535.8 -0 0)
(-28572.5 0 0)
(-136409 0 0)
(-39884.4 0 0)
(59222.6 -0 0)
(65808.3 -0 0)
(83264.2 -0 0)
(-12729.4 0 0)
(-70753.3 0 0)
(84093.4 -0 0)
(127647 -0 0)
(121192 -0 0)
(121312 -0 0)
(93307.9 -0 0)
(-5803.57 0 0)
(33827.2 -0 0)
(16224.8 -0 0)
(-59037.5 0 0)
(-56316.3 0 0)
(-103561 0 0)
(-116055 0 0)
(-53426.3 0 0)
(-34694.8 0 0)
(-46070.1 0 0)
(-58915.9 0 0)
(-59939.4 0 0)
(-56321 0 0)
(-57663.5 0 0)
(-54355.6 0 0)
(-55430.9 0 0)
(-56018.1 0 0)
(-50877.6 0 0)
(-50162.8 0 0)
(-48156 0 0)
(-42006.1 0 0)
(-37804.2 0 0)
(-36590.4 0 0)
(-28565.5 0 0)
(-27305.2 0 0)
(-23250.5 0 0)
(-14494.6 0 0)
(-9596.97 0 0)
(-11847.5 0 0)
(-7213.75 0 0)
(-19948.8 0 0)
(-12697.3 0 0)
(-24351.1 0 0)
(-18366 0 0)
(-24061.5 0 0)
(-13994.2 0 0)
(-11905.2 0 0)
(664.862 -0 0)
(-12832.5 0 0)
(-12488.3 0 0)
(1942.84 -0 0)
(-502.861 0 0)
(-5930.75 0 0)
(-2733.78 0 0)
(-4975.73 0 0)
(-14005.1 0 0)
(-13983 0 0)
(-5883.26 0 0)
(-8672.38 0 0)
(-7105.23 0 0)
(-14960.4 0 0)
(-14766.3 0 0)
(-10020.9 0 0)
(-3249.06 0 0)
(-9266.39 0 0)
(8105.76 -0 0)
(14128.5 -0 0)
(31002.8 -0 0)
(46986.1 -0 0)
(65734.9 -0 0)
(84093.4 -0 0)
(86808.3 -0 0)
(91806.4 -0 0)
(85631.9 -0 0)
(69234.9 -0 0)
(72454.8 -0 0)
(-29312.2 0 0)
(-51800.9 0 0)
(-95214.9 0 0)
(-16918.5 0 0)
(170335 -0 0)
(272902 -0 0)
(204592 -0 0)
(122936 -0 0)
(51607.9 -0 0)
(-48196.5 0 0)
(-179313 0 0)
(-221447 0 0)
(-189317 0 0)
(-181643 0 0)
(-68776.6 0 0)
(-43184.7 0 0)
(24731.5 -0 0)
(-26790 0 0)
(-89365.6 0 0)
(-47651 0 0)
(60826.6 -0 0)
(25407.3 -0 0)
(-83947.6 0 0)
(-53016.2 0 0)
(58141.2 -0 0)
(76913.6 -0 0)
(74879 -0 0)
(-83829.4 0 0)
(-101966 0 0)
(94335 -0 0)
(134732 -0 0)
(141948 -0 0)
(158632 -0 0)
(130089 -0 0)
(4568.23 -0 0)
(36895 -0 0)
(28680.9 -0 0)
(-33223.8 0 0)
(-40679.2 0 0)
(-56308.7 0 0)
(-77328.4 0 0)
(-52845.6 0 0)
(-26205.1 0 0)
(-38615.4 0 0)
(-54912 0 0)
(-59901.9 0 0)
(-60385.4 0 0)
(-56391.1 0 0)
(-53011.4 0 0)
(-52668.7 0 0)
(-48430 0 0)
(-53734.4 0 0)
(-51108.1 0 0)
(-44374.1 0 0)
(-36766.2 0 0)
(-38982.9 0 0)
(-36617.3 0 0)
(-34975.5 0 0)
(-30264 0 0)
(-23402.9 0 0)
(-20315 0 0)
(-9202.21 0 0)
(-1175.64 0 0)
(-4229.02 0 0)
(-18262.2 0 0)
(-12341.7 0 0)
(-17613.2 0 0)
(-26584.7 0 0)
(-12999.1 0 0)
(-12303.5 0 0)
(3419.97 -0 0)
(1368.88 -0 0)
(7625.93 -0 0)
(5338.26 -0 0)
(-2443.68 0 0)
(-7685.06 0 0)
(540.795 -0 0)
(-7505.99 0 0)
(-7431.77 0 0)
(-2215.23 0 0)
(-7115.67 0 0)
(-10085.9 0 0)
(-2541.64 0 0)
(-10376.5 0 0)
(-7019.33 0 0)
(-7970 0 0)
(-17146.2 0 0)
(-4341.57 0 0)
(-8671.04 0 0)
(11117 -0 0)
(20995.8 -0 0)
(31616 -0 0)
(52856.3 -0 0)
(67808.6 -0 0)
(79497.5 -0 0)
(76924.7 -0 0)
(81653.3 -0 0)
(72864.6 -0 0)
(62034.1 -0 0)
(60267 -0 0)
(-25691.7 0 0)
(-61364.2 0 0)
(-56124 0 0)
(72014.1 -0 0)
(217795 -0 0)
(214394 -0 0)
(156034 -0 0)
(78837.8 -0 0)
(8341.06 -0 0)
(-179532 0 0)
(-298211 0 0)
(-248611 0 0)
(-262912 0 0)
(-205935 0 0)
(-129757 0 0)
(-67703.5 0 0)
(-52853.3 0 0)
(-80472.9 0 0)
(-58515.4 0 0)
(-59439.5 0 0)
(85587.6 -0 0)
(58156.1 -0 0)
(-45583.2 0 0)
(-58529.3 0 0)
(56354.6 -0 0)
(55839.7 -0 0)
(28992 -0 0)
(-241564 0 0)
(-204929 0 0)
(55269.4 -0 0)
(82305.3 -0 0)
(148316 -0 0)
(176110 -0 0)
(155910 -0 0)
(21162.4 -0 0)
(25443.2 -0 0)
(58768.5 -0 0)
(-24780.2 0 0)
(-33422.5 0 0)
(-25823.5 0 0)
(-64069.8 0 0)
(-51546.8 0 0)
(-16197.6 0 0)
(-34198.6 0 0)
(-50251.6 0 0)
(-59946.4 0 0)
(-58695.6 0 0)
(-56139.6 0 0)
(-49987.5 0 0)
(-45192.6 0 0)
(-47819.5 0 0)
(-50695.2 0 0)
(-46802.2 0 0)
(-46614.8 0 0)
(-36769.5 0 0)
(-34600.7 0 0)
(-41113.7 0 0)
(-33366.4 0 0)
(-28993.5 0 0)
(-30229.4 0 0)
(-20736.9 0 0)
(-21627 0 0)
(-8624.85 0 0)
(-12967.6 0 0)
(-9158.38 0 0)
(-24557.3 0 0)
(-19262.2 0 0)
(-29097.5 0 0)
(-17827.8 0 0)
(481.355 -0 0)
(3379.03 -0 0)
(7982.28 -0 0)
(-6412.79 0 0)
(-3031.13 0 0)
(-12321.5 0 0)
(389.96 -0 0)
(-2938.63 0 0)
(498.481 -0 0)
(-2624.78 0 0)
(45.9972 -0 0)
(-9333.86 0 0)
(-2750.18 0 0)
(-7593.48 0 0)
(-2631.97 0 0)
(-13077.6 0 0)
(-16704.4 0 0)
(-22693.6 0 0)
(-2216.02 0 0)
(-6754.88 0 0)
(12286.5 -0 0)
(24666 -0 0)
(36123.9 -0 0)
(49155.8 -0 0)
(61328.4 -0 0)
(66429.9 -0 0)
(65576.5 -0 0)
(70928.8 -0 0)
(63044.4 -0 0)
(54703.3 -0 0)
(43213.2 -0 0)
(-37991.4 0 0)
(-50146 0 0)
(-27607.7 0 0)
(126585 -0 0)
(240342 -0 0)
(194625 -0 0)
(118298 -0 0)
(50765.9 -0 0)
(-82904.8 0 0)
(-259228 0 0)
(-306060 0 0)
(-263236 0 0)
(-363757 0 0)
(-164817 0 0)
(-216593 0 0)
(-31615.5 0 0)
(-57239.6 0 0)
(-104767 0 0)
(-95400.3 0 0)
(-10678.7 0 0)
(74539.2 -0 0)
(-8173.78 0 0)
(-36989.6 0 0)
(-25181.9 0 0)
(42447.2 -0 0)
(11482.9 -0 0)
(-98392.3 0 0)
(-358172 0 0)
(-165207 0 0)
(-80575 0 0)
(20768.3 -0 0)
(138013 -0 0)
(173192 -0 0)
(175872 -0 0)
(41828.5 -0 0)
(12820.1 -0 0)
(81457.8 -0 0)
(-24523.6 0 0)
(-20988.5 0 0)
(-16330 0 0)
(-39624 0 0)
(-36524.5 0 0)
(-10000 0 0)
(-24871 0 0)
(-49201.8 0 0)
(-53221 0 0)
(-54516.3 0 0)
(-52946.5 0 0)
(-48237.7 0 0)
(-45371.3 0 0)
(-49672.5 0 0)
(-46662.5 0 0)
(-47809.6 0 0)
(-44698.3 0 0)
(-36990.8 0 0)
(-36911.2 0 0)
(-42083.2 0 0)
(-39371 0 0)
(-31836.1 0 0)
(-33488 0 0)
(-26918.5 0 0)
(-28830.3 0 0)
(-18578.2 0 0)
(-2450.89 0 0)
(-18083.6 0 0)
(-13607.5 0 0)
(-25692.3 0 0)
(-13909.1 0 0)
(-16788.6 0 0)
(-1899.42 0 0)
(12834.1 -0 0)
(-2255.79 0 0)
(-5621.06 0 0)
(-16721.8 0 0)
(-2607.63 0 0)
(-4270.47 0 0)
(4155.84 -0 0)
(-3755.79 0 0)
(3632.12 -0 0)
(-1205.77 0 0)
(-950.122 0 0)
(-6044.39 0 0)
(2645.14 -0 0)
(-4439.45 0 0)
(2475.54 -0 0)
(-8871.96 0 0)
(-21848.9 0 0)
(1790.82 -0 0)
(-9540.27 0 0)
(13663.2 -0 0)
(26747.8 -0 0)
(31607.4 -0 0)
(42749.4 -0 0)
(55507.7 -0 0)
(59055.4 -0 0)
(54225.6 -0 0)
(60235.6 -0 0)
(54886.8 -0 0)
(45161.8 -0 0)
(21217.9 -0 0)
(-31614.2 0 0)
(-53021.9 0 0)
(3520.08 -0 0)
(160745 -0 0)
(211287 -0 0)
(175326 -0 0)
(96172.6 -0 0)
(12388.3 -0 0)
(-136685 0 0)
(-245925 0 0)
(-283778 0 0)
(-155365 0 0)
(-161187 0 0)
(-116411 0 0)
(-155831 0 0)
(-68525 0 0)
(-50077.4 0 0)
(-103152 0 0)
(-160423 0 0)
(74286.8 -0 0)
(66733.1 -0 0)
(-35683.9 0 0)
(-92114.1 0 0)
(-14352.7 0 0)
(15953.3 -0 0)
(-39882.7 0 0)
(-303066 0 0)
(-360107 0 0)
(-113282 0 0)
(-136815 0 0)
(12625.9 -0 0)
(112324 -0 0)
(156336 -0 0)
(188117 -0 0)
(66577.3 -0 0)
(-4198.6 0 0)
(71320.7 -0 0)
(-22639.1 0 0)
(-23438 0 0)
(-638.941 0 0)
(-13259.2 0 0)
(-32848.9 0 0)
(-8014.26 0 0)
(-18766 0 0)
(-43767.8 0 0)
(-49683.4 0 0)
(-50674.3 0 0)
(-50016.8 0 0)
(-44478.6 0 0)
(-43177.9 0 0)
(-44348.9 0 0)
(-46623.3 0 0)
(-44979.5 0 0)
(-37482.1 0 0)
(-41622.6 0 0)
(-41395.6 0 0)
(-37315.5 0 0)
(-36045.5 0 0)
(-37427.1 0 0)
(-30923.3 0 0)
(-34755.8 0 0)
(-26033.6 0 0)
(-23026.6 0 0)
(-3893.85 0 0)
(-20509.2 0 0)
(-21302.6 0 0)
(-10362.7 0 0)
(-17111.5 0 0)
(-1035.53 0 0)
(3201.79 -0 0)
(12481.4 -0 0)
(-13868.2 0 0)
(-18778.5 0 0)
(-4589.83 0 0)
(-7864.13 0 0)
(3833.21 -0 0)
(2674.65 -0 0)
(-623.081 0 0)
(1602.76 -0 0)
(6294.26 -0 0)
(-1291.27 0 0)
(2947.13 -0 0)
(-4883.95 0 0)
(-4359.72 0 0)
(4253.62 -0 0)
(-20127.6 0 0)
(-11720 0 0)
(3778.56 -0 0)
(-7473.59 0 0)
(14766 -0 0)
(24756.2 -0 0)
(32598.1 -0 0)
(42859.5 -0 0)
(46610.4 -0 0)
(47520.9 -0 0)
(43632.3 -0 0)
(49297.7 -0 0)
(46613.7 -0 0)
(36972.4 -0 0)
(-606.177 0 0)
(-32621.5 0 0)
(-46595.2 0 0)
(26521.4 -0 0)
(175082 -0 0)
(193327 -0 0)
(142503 -0 0)
(69934.8 -0 0)
(-24067.6 0 0)
(-160218 0 0)
(-213634 0 0)
(-173967 0 0)
(-111417 0 0)
(-27079.3 0 0)
(-14691.9 0 0)
(-1632.85 0 0)
(-47738.4 0 0)
(-13506.2 0 0)
(-38153.5 0 0)
(-59998.7 0 0)
(128781 -0 0)
(31984.7 -0 0)
(-78984.9 0 0)
(-78868.1 0 0)
(-7124.38 0 0)
(2007.95 -0 0)
(-73327.2 0 0)
(-181896 0 0)
(-338602 0 0)
(-88368.1 0 0)
(-212320 0 0)
(1960.11 -0 0)
(97169.4 -0 0)
(136131 -0 0)
(183436 -0 0)
(94469.6 -0 0)
(-22909.7 0 0)
(67826.1 -0 0)
(-7690.24 0 0)
(-4267.13 0 0)
(16516.4 -0 0)
(-3608.98 0 0)
(-15625.5 0 0)
(-17051.2 0 0)
(-22512.4 0 0)
(-41445.6 0 0)
(-48316.1 0 0)
(-46118.9 0 0)
(-48010.4 0 0)
(-44315.4 0 0)
(-37725.5 0 0)
(-40571.3 0 0)
(-42034.1 0 0)
(-38911.5 0 0)
(-38821 0 0)
(-36309.9 0 0)
(-38928.5 0 0)
(-29766.5 0 0)
(-39103.5 0 0)
(-34199.5 0 0)
(-38564.8 0 0)
(-32025.3 0 0)
(-31702.6 0 0)
(-13905.8 0 0)
(-10147.3 0 0)
(-11837.5 0 0)
(-9136.59 0 0)
(-17345.6 0 0)
(-1962.25 0 0)
(-972.495 0 0)
(13077.4 -0 0)
(-1636.28 0 0)
(-19892.6 0 0)
(-9540.11 0 0)
(-11466.4 0 0)
(457.295 -0 0)
(13.3028 -0 0)
(-2125.98 0 0)
(6249.97 -0 0)
(5261.86 -0 0)
(7378.09 -0 0)
(7843.65 -0 0)
(2656.12 -0 0)
(9933.01 -0 0)
(-3101.24 0 0)
(-507.918 0 0)
(-19298.7 0 0)
(-18738.6 0 0)
(-5707.91 0 0)
(-10020.3 0 0)
(15614.8 -0 0)
(27365.1 -0 0)
(32097.2 -0 0)
(34466.3 -0 0)
(41297.8 -0 0)
(33732.6 -0 0)
(33563.3 -0 0)
(37909.5 -0 0)
(30897.5 -0 0)
(27688.6 -0 0)
(-8906.09 0 0)
(-49889.7 0 0)
(-27584.7 0 0)
(37041.1 -0 0)
(180203 -0 0)
(178673 -0 0)
(129427 -0 0)
(44672.4 -0 0)
(-44544.3 0 0)
(-123689 0 0)
(-183797 0 0)
(-91448.7 0 0)
(-37187.8 0 0)
(11414.2 -0 0)
(36706.2 -0 0)
(43053.1 -0 0)
(45084.6 -0 0)
(21094.6 -0 0)
(15325.5 -0 0)
(68239.8 -0 0)
(140666 -0 0)
(-18190.8 0 0)
(-47200.6 0 0)
(-21776.8 0 0)
(31881 -0 0)
(-27454 0 0)
(-68766.6 0 0)
(-199788 0 0)
(-379229 0 0)
(-88530.5 0 0)
(-163524 0 0)
(-6571.87 0 0)
(113823 -0 0)
(116483 -0 0)
(173321 -0 0)
(121929 -0 0)
(-26768.7 0 0)
(71535.9 -0 0)
(35356.2 -0 0)
(28400.4 -0 0)
(25882.9 -0 0)
(12530.7 -0 0)
(-16707.4 0 0)
(-17153.2 0 0)
(-30799.2 0 0)
(-47079.5 0 0)
(-47312.7 0 0)
(-46519.5 0 0)
(-43981.9 0 0)
(-42921.1 0 0)
(-33502.1 0 0)
(-35040.3 0 0)
(-33895.5 0 0)
(-40977.7 0 0)
(-34097.8 0 0)
(-37674.3 0 0)
(-34227.2 0 0)
(-32499.8 0 0)
(-33154.4 0 0)
(-40570.8 0 0)
(-34032.2 0 0)
(-36797.2 0 0)
(-22893.9 0 0)
(-6676.12 0 0)
(15884.5 -0 0)
(4340.97 -0 0)
(-18737.1 0 0)
(-4082.77 0 0)
(-7426.48 0 0)
(13527.6 -0 0)
(8741.76 -0 0)
(6916.37 -0 0)
(-13269.5 0 0)
(-19891.9 0 0)
(-1008.74 0 0)
(-4074.22 0 0)
(-7633.84 0 0)
(1946.89 -0 0)
(3756.61 -0 0)