/*--------------------------------*- C++ -*----------------------------------*\
| =========                 |                                                 |
| \\      /  F ield         | foam-extend: Open Source CFD                    |
|  \\    /   O peration     | Version:     5.0                                |
|   \\  /    A nd           | Web:         http://www.foam-extend.org         |
|    \\/     M anipulation  |                                                 |
\*---------------------------------------------------------------------------*/
FoamFile
{
    version     2.0;
    format      ascii;
    class       volVectorField;
    location    "0.08";
    object      currentDensity;
}
// * * * * * * * * * * * * * * * * * * * * * * * * * * * * * * * * * * * * * //

dimensions      [0 -2 0 0 0 1 0];

internalField   nonuniform List<vector> 
4000
(
(0 0 84.0729)
(0 0 20.6941)
(0 0 148.523)
(0 0 381.655)
(0 0 660.371)
(0 0 1155.48)
(0 0 2017.32)
(0 0 3208.14)
(0 0 5000)
(0 0 7115.11)
(0 0 8720.01)
(0 0 8991.69)
(0 0 7390.51)
(0 0 5158.11)
(0 0 3365.62)
(0 0 4694.29)
(0 0 5367.67)
(0 0 7153.99)
(0 0 7325.38)
(0 0 8292.12)
(0 0 8552.63)
(0 0 8644.35)
(0 0 9784.94)
(0 0 11879.8)
(0 0 12629.9)
(0 0 15486.8)
(0 0 16876.6)
(0 0 15724.7)
(0 0 14905.4)
(0 0 15895.2)
(0 0 17102.4)
(0 0 19038.9)
(0 0 19827.1)
(0 0 18125.1)
(0 0 17025.9)
(0 0 16850.8)
(0 0 16649.4)
(0 0 15111)
(0 0 14917.2)
(0 0 13956.2)
(0 0 13879)
(0 0 13759.3)
(0 0 12769)
(0 0 12211.7)
(0 0 10549.2)
(0 0 9156.39)
(0 0 8754.52)
(0 0 6358.71)
(0 0 5840.22)
(0 0 5540.12)
(0 0 5971.45)
(0 0 5653.46)
(0 0 4926.89)
(0 0 3895.86)
(0 0 3469.78)
(0 0 3728.54)
(0 0 3183.47)
(0 0 2338.79)
(0 0 2371.3)
(0 0 1993.92)
(0 0 2149.83)
(0 0 1955.41)
(0 0 1559.11)
(0 0 1644.01)
(0 0 1353.18)
(0 0 1356.34)
(0 0 1131.06)
(0 0 876.228)
(0 0 705.255)
(0 0 665.014)
(0 0 458.375)
(0 0 383.929)
(0 0 304.124)
(0 0 234.77)
(0 0 185.276)
(0 0 118.704)
(0 0 84.4541)
(0 0 -22.9261)
(0 0 -14.9301)
(0 0 -162.289)
(0 0 -233.539)
(0 0 -484.929)
(0 0 -373.072)
(0 0 -557.203)
(0 0 -307.65)
(0 0 -1.02678)
(0 0 -365.321)
(0 0 45.4302)
(0 0 -164.793)
(0 0 -120.22)
(0 0 469.818)
(0 0 323.626)
(0 0 470.347)
(0 0 106.67)
(0 0 297.488)
(0 0 144.394)
(0 0 147.746)
(0 0 372.724)
(0 0 498.101)
(0 0 418.727)
(0 0 243.104)
(0 0 113.187)
(0 0 238.458)
(0 0 645.155)
(0 0 1091.7)
(0 0 1658.44)
(0 0 2542.2)
(0 0 4206.88)
(0 0 5257.63)
(0 0 6327.98)
(0 0 6815)
(0 0 5088.48)
(0 0 2103.12)
(0 0 -1336.78)
(0 0 -1011.23)
(0 0 17.0277)
(0 0 1755.17)
(0 0 2503.47)
(0 0 4548.98)
(0 0 5390.04)
(0 0 7234.45)
(0 0 8055.33)
(0 0 8430.99)
(0 0 8792.4)
(0 0 9426.84)
(0 0 10139.9)
(0 0 10788)
(0 0 9941.11)
(0 0 9332.88)
(0 0 9687.97)
(0 0 11839.8)
(0 0 13268.6)
(0 0 14318.2)
(0 0 12138.7)
(0 0 12571)
(0 0 11418.5)
(0 0 10739.7)
(0 0 10818.1)
(0 0 9527.18)
(0 0 10097.9)
(0 0 9601.82)
(0 0 10136.8)
(0 0 11530)
(0 0 9667.74)
(0 0 8851.42)
(0 0 9126.27)
(0 0 8530.1)
(0 0 7857.31)
(0 0 5615.26)
(0 0 5901.09)
(0 0 5507.71)
(0 0 5450.38)
(0 0 4952.76)
(0 0 5172.06)
(0 0 4548.88)
(0 0 4651.44)
(0 0 3851.69)
(0 0 4105.85)
(0 0 3390.65)
(0 0 3735.12)
(0 0 3271.12)
(0 0 3680.28)
(0 0 3503.8)
(0 0 2831.32)
(0 0 2866.7)
(0 0 2164.98)
(0 0 2197.34)
(0 0 1469.64)
(0 0 1147.19)
(0 0 1213.33)
(0 0 664.156)
(0 0 562.255)
(0 0 625.698)
(0 0 443.523)
(0 0 356.574)
(0 0 209.282)
(0 0 381.418)
(0 0 113.376)
(0 0 235.229)
(0 0 -197.088)
(0 0 -126.337)
(0 0 -857.541)
(0 0 -552.406)
(0 0 -512.831)
(0 0 -726.802)
(0 0 -52.3839)
(0 0 -383.657)
(0 0 240.039)
(0 0 30.7577)
(0 0 -26.3751)
(0 0 1014.09)
(0 0 1196.34)
(0 0 815.276)
(0 0 498.096)
(0 0 706.683)
(0 0 774.808)
(0 0 404.023)
(0 0 845.544)
(0 0 626.448)
(0 0 1088.22)
(0 0 328.11)
(0 0 249.273)
(0 0 271.315)
(0 0 606.673)
(0 0 942.462)
(0 0 1238.99)
(0 0 1814.8)
(0 0 2429.39)
(0 0 2993.89)
(0 0 2740.59)
(0 0 2085)
(0 0 1013.55)
(0 0 -2219.9)
(0 0 -4288.02)
(0 0 -1695.74)
(0 0 -12.4237)
(0 0 1128.73)
(0 0 2124.95)
(0 0 3318.07)
(0 0 5444.76)
(0 0 6193.93)
(0 0 5994.78)
(0 0 5116.95)
(0 0 4559.81)
(0 0 5936.61)
(0 0 5828.13)
(0 0 5724.67)
(0 0 4905.29)
(0 0 4466.81)
(0 0 4738.36)
(0 0 6893.97)
(0 0 8487.71)
(0 0 9803.59)
(0 0 8699.31)
(0 0 7539.91)
(0 0 6698.89)
(0 0 7230.41)
(0 0 6173.44)
(0 0 6089.18)
(0 0 6464.14)
(0 0 7760.6)
(0 0 9108.65)
(0 0 9408.68)
(0 0 9923.18)
(0 0 8313.75)
(0 0 8064.2)
(0 0 7692.04)
(0 0 7798.89)
(0 0 5886.29)
(0 0 6108.53)
(0 0 6410.4)
(0 0 5303.8)
(0 0 5346.03)
(0 0 4555.62)
(0 0 4917.18)
(0 0 4723)
(0 0 3768.82)
(0 0 4013.5)
(0 0 3385.82)
(0 0 3704.98)
(0 0 3235.93)
(0 0 3560.17)
(0 0 3214.75)
(0 0 3590.63)
(0 0 3271.27)
(0 0 2292.69)
(0 0 2466.35)
(0 0 1664.15)
(0 0 1613.13)
(0 0 1023.49)
(0 0 753.111)
(0 0 1001.76)
(0 0 612.778)
(0 0 651.698)
(0 0 648.566)
(0 0 542.002)
(0 0 312.107)
(0 0 820.488)
(0 0 210.415)
(0 0 472.787)
(0 0 -164.961)
(0 0 -562.385)
(0 0 -269.788)
(0 0 -719.571)
(0 0 -111.025)
(0 0 -317.918)
(0 0 351.583)
(0 0 74.245)
(0 0 840.562)
(0 0 609.587)
(0 0 1486.84)
(0 0 1267.88)
(0 0 1684.71)
(0 0 1703.3)
(0 0 777.146)
(0 0 720.017)
(0 0 956.543)
(0 0 607.184)
(0 0 983.611)
(0 0 899.03)
(0 0 327.448)
(0 0 343.723)
(0 0 299.113)
(0 0 587.003)
(0 0 747.401)
(0 0 969.614)
(0 0 1167.14)
(0 0 1339.9)
(0 0 941.725)
(0 0 453.982)
(0 0 -963.022)
(0 0 -2561.54)
(0 0 -5004.29)
(0 0 -5807.35)
(0 0 -2078.6)
(0 0 208.656)
(0 0 1656.83)
(0 0 4520.52)
(0 0 5740.64)
(0 0 7223.37)
(0 0 7924.09)
(0 0 4537.09)
(0 0 3512.38)
(0 0 3083.96)
(0 0 3937.25)
(0 0 3472.08)
(0 0 2449.3)
(0 0 1544.84)
(0 0 459.374)
(0 0 1648.46)
(0 0 1509.07)
(0 0 3557.72)
(0 0 4432.58)
(0 0 4729.61)
(0 0 2925.44)
(0 0 2054.47)
(0 0 2454.63)
(0 0 1721.13)
(0 0 1482.02)
(0 0 2612.94)
(0 0 5848.85)
(0 0 6681.65)
(0 0 8509.53)
(0 0 9382.06)
(0 0 9442.3)
(0 0 7251.61)
(0 0 7312.39)
(0 0 6782.61)
(0 0 6004.47)
(0 0 5262.48)
(0 0 5024.8)
(0 0 5611.94)
(0 0 4878.19)
(0 0 4664.82)
(0 0 3983.03)
(0 0 3971.19)
(0 0 3670.56)
(0 0 3973.92)
(0 0 3380.85)
(0 0 3542.46)
(0 0 3056.54)
(0 0 2896.92)
(0 0 3029.02)
(0 0 3594.25)
(0 0 3170.15)
(0 0 2361.96)
(0 0 2515.82)
(0 0 2063.97)
(0 0 1574.51)
(0 0 1168.68)
(0 0 1047.59)
(0 0 1095.86)
(0 0 737.295)
(0 0 764.486)
(0 0 732.474)
(0 0 958.633)
(0 0 601.441)
(0 0 1012.1)
(0 0 402.706)
(0 0 669.968)
(0 0 5.05622)
(0 0 -69.1691)
(0 0 -165.06)
(0 0 -451.751)
(0 0 -424.491)
(0 0 161.169)
(0 0 -25.8185)
(0 0 619.557)
(0 0 558.889)
(0 0 1347.58)
(0 0 1267.42)
(0 0 1920.54)
(0 0 1557.94)
(0 0 1916.19)
(0 0 1021.1)
(0 0 1175.73)
(0 0 762.974)
(0 0 568.232)
(0 0 631.451)
(0 0 1286.35)
(0 0 271.764)
(0 0 362.493)
(0 0 340.598)
(0 0 490.795)
(0 0 655.75)
(0 0 696.681)
(0 0 632.124)
(0 0 164.658)
(0 0 -484.096)
(0 0 -1875.79)
(0 0 -3316.59)
(0 0 -4747.11)
(0 0 -7185.3)
(0 0 -5764.26)
(0 0 -1849.4)
(0 0 1041.17)
(0 0 4613.57)
(0 0 7240.8)
(0 0 9755.71)
(0 0 10533.3)
(0 0 6581.88)
(0 0 2670.91)
(0 0 1491.98)
(0 0 1611.21)
(0 0 70.4207)
(0 0 51.3249)
(0 0 -961.224)
(0 0 -2527.59)
(0 0 -3204.91)
(0 0 -2191.8)
(0 0 -3458.98)
(0 0 -2540.83)
(0 0 1929.03)
(0 0 964.408)
(0 0 -190.266)
(0 0 -1603.28)
(0 0 1215.82)
(0 0 1307.25)
(0 0 -124.145)
(0 0 2.56351)
(0 0 1887.42)
(0 0 4874.63)
(0 0 6694.41)
(0 0 9645.04)
(0 0 9819.75)
(0 0 7709.14)
(0 0 7475.9)
(0 0 7046.41)
(0 0 5393.62)
(0 0 3967.88)
(0 0 4765.3)
(0 0 4709.48)
(0 0 5166.95)
(0 0 4355.72)
(0 0 4337.61)
(0 0 3842.38)
(0 0 4154.7)
(0 0 3753.57)
(0 0 3753.69)
(0 0 3436.82)
(0 0 3557.73)
(0 0 3118.29)
(0 0 3499.42)
(0 0 2868.63)
(0 0 2775.49)
(0 0 2540.7)
(0 0 1986.99)
(0 0 2059.29)
(0 0 1555.57)
(0 0 1719.93)
(0 0 1415.22)
(0 0 970.304)
(0 0 871.751)
(0 0 818.452)
(0 0 947.494)
(0 0 859.29)
(0 0 1030.31)
(0 0 722.917)
(0 0 840.315)
(0 0 340.872)
(0 0 344.687)
(0 0 -234.619)
(0 0 -589.237)
(0 0 -112.397)
(0 0 77.0241)
(0 0 -253.08)
(0 0 282.833)
(0 0 230.646)
(0 0 1148.03)
(0 0 1067.4)
(0 0 1841.28)
(0 0 1620.52)
(0 0 2070.04)
(0 0 1653.56)
(0 0 1599.85)
(0 0 940.348)
(0 0 1197.45)
(0 0 814.326)
(0 0 1108.67)
(0 0 1233.7)
(0 0 203.281)
(0 0 321.346)
(0 0 294.031)
(0 0 496.614)
(0 0 527.445)
(0 0 474.493)
(0 0 30.2435)
(0 0 -661.75)
(0 0 -2029.1)
(0 0 -3207.25)
(0 0 -5188.85)
(0 0 -6713.41)
(0 0 -7893.73)
(0 0 -5233.15)
(0 0 138.107)
(0 0 3178.02)
(0 0 6873.45)
(0 0 10914.3)
(0 0 12778.9)
(0 0 10328.8)
(0 0 4232.22)
(0 0 899.935)
(0 0 -2160.32)
(0 0 -2480.55)
(0 0 -5160.11)
(0 0 -6844.8)
(0 0 -8006.68)
(0 0 -7947.43)
(0 0 -7243.49)
(0 0 -5320.32)
(0 0 -7724.71)
(0 0 -6915.65)
(0 0 -1613.41)
(0 0 -3876.13)
(0 0 -6366.16)
(0 0 -3077.95)
(0 0 -575.047)
(0 0 58.2045)
(0 0 -263.548)
(0 0 -1790.48)
(0 0 73.3423)
(0 0 3079.68)
(0 0 5432.3)
(0 0 8377.85)
(0 0 10371.1)
(0 0 8617.42)
(0 0 6670.22)
(0 0 6969.23)
(0 0 5303.28)
(0 0 4208.68)
(0 0 4799.83)
(0 0 4363.25)
(0 0 4788.17)
(0 0 4098.12)
(0 0 4123.71)
(0 0 3826.71)
(0 0 3903.72)
(0 0 4193.02)
(0 0 3662.04)
(0 0 3864.18)
(0 0 3501.15)
(0 0 3545.24)
(0 0 3084.19)
(0 0 2991.86)
(0 0 2478.55)
(0 0 2105.7)
(0 0 1941.67)
(0 0 2127.74)
(0 0 1876.72)
(0 0 1805.5)
(0 0 1412.73)
(0 0 999.052)
(0 0 863.932)
(0 0 828.292)
(0 0 909.17)
(0 0 1044.77)
(0 0 851.514)
(0 0 980.725)
(0 0 542.487)
(0 0 610.199)
(0 0 -80.2386)
(0 0 49.1873)
(0 0 -415.456)
(0 0 -631.578)
(0 0 -566.993)
(0 0 -82.6218)
(0 0 77.3553)
(0 0 674.755)
(0 0 1370.4)
(0 0 1171.85)
(0 0 1431.38)
(0 0 1659.9)
(0 0 2200.56)
(0 0 2065.05)
(0 0 1359.81)
(0 0 1334.36)
(0 0 908.827)
(0 0 1233.48)
(0 0 1035.23)
(0 0 1447.21)
(0 0 150.557)
(0 0 217.89)
(0 0 255.087)
(0 0 495.877)
(0 0 424.045)
(0 0 141.555)
(0 0 -450.043)
(0 0 -1516.3)
(0 0 -3318.55)
(0 0 -4636.11)
(0 0 -6022.71)
(0 0 -8007.3)
(0 0 -8162.56)
(0 0 -3862.24)
(0 0 1318.91)
(0 0 4174.52)
(0 0 9966.52)
(0 0 14525.6)
(0 0 12260.6)
(0 0 4951.83)
(0 0 127.353)
(0 0 -3753.68)
(0 0 -6049.33)
(0 0 -8539.74)
(0 0 -11273.3)
(0 0 -13480.8)
(0 0 -12987.4)
(0 0 -11261.9)
(0 0 -10524)
(0 0 -10928.5)
(0 0 -7354.28)
(0 0 -978.54)
(0 0 -5633.97)
(0 0 -9949.24)
(0 0 -10809.1)
(0 0 -7326.78)
(0 0 -1839.13)
(0 0 -1617.12)
(0 0 -1354.6)
(0 0 -2559.08)
(0 0 -811.883)
(0 0 2752.07)
(0 0 4409.54)
(0 0 7516.46)
(0 0 11665.9)
(0 0 8969.82)
(0 0 6856.24)
(0 0 7902.93)
(0 0 7896.3)
(0 0 5651.59)
(0 0 4553.73)
(0 0 4389.31)
(0 0 4364.68)
(0 0 3678.9)
(0 0 3653.67)
(0 0 4194.39)
(0 0 3887.02)
(0 0 4123.65)
(0 0 3729.33)
(0 0 3969.76)
(0 0 3816.18)
(0 0 3383.66)
(0 0 3222.63)
(0 0 2844.5)
(0 0 2753.81)
(0 0 2299.17)
(0 0 2308.34)
(0 0 2036.4)
(0 0 1923.08)
(0 0 1585.04)
(0 0 1221.12)
(0 0 932.798)
(0 0 782.468)
(0 0 882.512)
(0 0 989.77)
(0 0 939.738)
(0 0 995.079)
(0 0 721.962)
(0 0 719.495)
(0 0 239.049)
(0 0 -246.002)
(0 0 -110.886)
(0 0 -196.901)
(0 0 -612.324)
(0 0 -253.739)
(0 0 238.843)
(0 0 320.327)
(0 0 934.481)
(0 0 1546.64)
(0 0 1526.35)
(0 0 1609.05)
(0 0 1900.6)
(0 0 1672.15)
(0 0 1469.86)
(0 0 1478.44)
(0 0 957.519)
(0 0 1173.91)
(0 0 1017.24)
(0 0 1063.6)
(0 0 1347.06)
(0 0 196.497)
(0 0 66.7247)
(0 0 135.986)
(0 0 431.501)
(0 0 243.59)
(0 0 -189.105)
(0 0 -1153.69)
(0 0 -2651.42)
(0 0 -4393.62)
(0 0 -5770.55)
(0 0 -7136.65)
(0 0 -8415.86)
(0 0 -8354.31)
(0 0 -2778.64)
(0 0 1872.17)
(0 0 6197.87)
(0 0 12816)
(0 0 15352.5)
(0 0 8253.79)
(0 0 1982.92)
(0 0 -5245.57)
(0 0 -8778.03)
(0 0 -10164.5)
(0 0 -13941.3)
(0 0 -17210.3)
(0 0 -17629)
(0 0 -15547.9)
(0 0 -13875.4)
(0 0 -12454.5)
(0 0 -11407.8)
(0 0 -886.287)
(0 0 2706.18)
(0 0 -9844.76)
(0 0 -10412.3)
(0 0 -7714.86)
(0 0 -1584.34)
(0 0 -1020.07)
(0 0 -2690.29)
(0 0 -3227.49)
(0 0 -3792.03)
(0 0 -2229.94)
(0 0 1647.5)
(0 0 4348.85)
(0 0 6925.91)
(0 0 10894.7)
(0 0 11025.9)
(0 0 7094.55)
(0 0 8380.83)
(0 0 11035.4)
(0 0 6227.03)
(0 0 6123.55)
(0 0 4325.46)
(0 0 3401.26)
(0 0 3776.83)
(0 0 4257.75)
(0 0 3660.67)
(0 0 3863.77)
(0 0 3690.39)
(0 0 3792.32)
(0 0 3857.14)
(0 0 3338.32)
(0 0 3573.7)
(0 0 3116.98)
(0 0 3081.97)
(0 0 2560.55)
(0 0 2438.3)
(0 0 2560.18)
(0 0 2174.49)
(0 0 1768.86)
(0 0 1395.07)
(0 0 1099.89)
(0 0 1152.32)
(0 0 832.156)
(0 0 870.894)
(0 0 983.661)
(0 0 995.083)
(0 0 884.812)
(0 0 822.608)
(0 0 500.226)
(0 0 337.76)
(0 0 -202.675)
(0 0 -409.863)
(0 0 -215.705)
(0 0 -234.061)
(0 0 365.549)
(0 0 278.422)
(0 0 844.114)
(0 0 888.149)
(0 0 1569.07)
(0 0 1672.92)
(0 0 1923.4)
(0 0 1725.98)
(0 0 1718.66)
(0 0 1570.82)
(0 0 1051.73)
(0 0 1092.8)
(0 0 833.246)
(0 0 845.902)
(0 0 1131.33)
(0 0 1224.9)
(0 0 379.723)
(0 0 -14.2757)
(0 0 -27.7108)
(0 0 230.19)
(0 0 103.713)
(0 0 -659.562)
(0 0 -1714.99)
(0 0 -3279.93)
(0 0 -5251.3)
(0 0 -6832.68)
(0 0 -7343.17)
(0 0 -8708.07)
(0 0 -7655.79)
(0 0 -2208.13)
(0 0 5313.16)
(0 0 8781.51)
(0 0 17094.7)
(0 0 10441.9)
(0 0 3872.36)
(0 0 -3708.01)
(0 0 -9882.61)
(0 0 -13586.9)
(0 0 -14386.3)
(0 0 -17953.6)
(0 0 -18064.8)
(0 0 -16829.9)
(0 0 -10751)
(0 0 -9784.88)
(0 0 -8191.02)
(0 0 -6030.76)
(0 0 824.107)
(0 0 11963.8)
(0 0 -2724.82)
(0 0 -3110.44)
(0 0 2235.91)
(0 0 5780.39)
(0 0 3135.89)
(0 0 -863.711)
(0 0 -3435.87)
(0 0 -5112.73)
(0 0 -4421.2)
(0 0 900.131)
(0 0 4369.77)
(0 0 5270.81)
(0 0 9236.43)
(0 0 11688.1)
(0 0 7326.98)
(0 0 5433.05)
(0 0 12227.9)
(0 0 8574.28)
(0 0 7269.81)
(0 0 4700.81)
(0 0 3583.98)
(0 0 3990.26)
(0 0 3740.08)
(0 0 3703.9)
(0 0 3620)
(0 0 3719.41)
(0 0 3382.67)
(0 0 3417.33)
(0 0 3243.29)
(0 0 3460.19)
(0 0 3111.64)
(0 0 3092.09)
(0 0 2654.32)
(0 0 2681.61)
(0 0 2239.9)
(0 0 1934.32)
(0 0 1590.15)
(0 0 1573.11)
(0 0 1182.91)
(0 0 1175.36)
(0 0 884.095)
(0 0 1006.57)
(0 0 964.948)
(0 0 976.313)
(0 0 912.539)
(0 0 800.761)
(0 0 655.535)
(0 0 269.742)
(0 0 30.8412)
(0 0 -72.7269)
(0 0 285.875)
(0 0 538.673)
(0 0 212.825)
(0 0 327.791)
(0 0 1176.96)
(0 0 1334.44)
(0 0 1476.49)
(0 0 1685.29)
(0 0 1939.14)
(0 0 1686.69)
(0 0 1442.09)
(0 0 1037.5)
(0 0 1051.44)
(0 0 736.042)
(0 0 614.141)
(0 0 798.331)
(0 0 1244.37)
(0 0 1100.26)
(0 0 312.842)
(0 0 -47.26)
(0 0 -120.434)
(0 0 -53.3783)
(0 0 -125.082)
(0 0 -1091.32)
(0 0 -2444.46)
(0 0 -4052.31)
(0 0 -6072.2)
(0 0 -6839.23)
(0 0 -7253.29)
(0 0 -7870.14)
(0 0 -5963.58)
(0 0 -643.158)
(0 0 6120.51)
(0 0 11887.1)
(0 0 15136)
(0 0 5883.68)
(0 0 -2144.77)
(0 0 -11210.6)
(0 0 -14279.1)
(0 0 -14073.5)
(0 0 -15523.8)
(0 0 -15533.1)
(0 0 -14575.7)
(0 0 -10689.9)
(0 0 -6924.19)
(0 0 -5053.87)
(0 0 -2952.74)
(0 0 3124.53)
(0 0 434.212)
(0 0 5715.27)
(0 0 2822.1)
(0 0 4096.09)
(0 0 6576.11)
(0 0 5366.87)
(0 0 4710.41)
(0 0 1966.28)
(0 0 -1105.58)
(0 0 -4391.52)
(0 0 -5215.55)
(0 0 -266.827)
(0 0 3251.62)
(0 0 3714.48)
(0 0 5779.29)
(0 0 10012.3)
(0 0 6230.9)
(0 0 2072.17)
(0 0 12219.3)
(0 0 10607.3)
(0 0 7532.54)
(0 0 5361.74)
(0 0 3907.39)
(0 0 3455.2)
(0 0 3833.49)
(0 0 3717.87)
(0 0 3619.65)
(0 0 3405.91)
(0 0 3417.84)
(0 0 3159.16)
(0 0 3281.04)
(0 0 3228.57)
(0 0 3192.6)
(0 0 2971.61)
(0 0 2829.81)
(0 0 2504.91)
(0 0 2328.17)
(0 0 1758.31)
(0 0 1683.51)
(0 0 1475.21)
(0 0 1390.73)
(0 0 1090.96)
(0 0 1102.5)
(0 0 895.581)
(0 0 959.643)
(0 0 925.399)
(0 0 933.817)
(0 0 809.626)
(0 0 772.345)
(0 0 439.501)
(0 0 415.231)
(0 0 596.811)
(0 0 921.58)
(0 0 547.101)
(0 0 708.011)
(0 0 200.658)
(0 0 848.809)
(0 0 446.436)
(0 0 1014.85)
(0 0 1590.01)
(0 0 1706.24)
(0 0 1515.77)
(0 0 1249.75)
(0 0 671.384)
(0 0 782.141)
(0 0 525.885)
(0 0 549.453)
(0 0 913.924)
(0 0 1319.35)
(0 0 1086.91)
(0 0 309.525)
(0 0 -165.111)
(0 0 -164.333)
(0 0 -392.257)
(0 0 -499.65)
(0 0 -1703.24)
(0 0 -3001.63)
(0 0 -4809.58)
(0 0 -6195.52)
(0 0 -6702.81)
(0 0 -6463.58)
(0 0 -7284.29)
(0 0 -4403.64)
(0 0 2076.69)
(0 0 7506.92)
(0 0 14967)
(0 0 10020.4)
(0 0 1544.7)
(0 0 -8160.12)
(0 0 -13954.1)
(0 0 -15538.9)
(0 0 -12406.5)
(0 0 -12315.5)
(0 0 -11781.2)
(0 0 -8963.31)
(0 0 -6457.6)
(0 0 -2713.59)
(0 0 -1141.78)
(0 0 -1700.83)
(0 0 11158.9)
(0 0 1096.69)
(0 0 364.813)
(0 0 -1555.85)
(0 0 3173.65)
(0 0 1366.16)
(0 0 417.888)
(0 0 810.441)
(0 0 102.151)
(0 0 -1406.82)
(0 0 -2128.04)
(0 0 -4546.6)
(0 0 -2100.75)
(0 0 1844.2)
(0 0 1349.17)
(0 0 2074.17)
(0 0 5279.11)
(0 0 4602.6)
(0 0 197.351)
(0 0 8579.45)
(0 0 9232.13)
(0 0 8944.79)
(0 0 7027.79)
(0 0 3899.35)
(0 0 3002.54)
(0 0 3411.78)
(0 0 3248.39)
(0 0 2954.18)
(0 0 3338.54)
(0 0 3189.55)
(0 0 3086.95)
(0 0 3114.72)
(0 0 3248.39)
(0 0 2959.37)
(0 0 3073.76)
(0 0 2691.76)
(0 0 2642.93)
(0 0 2166.33)
(0 0 1754.47)
(0 0 1914.53)
(0 0 1583.68)
(0 0 1296.44)
(0 0 1251.5)
(0 0 1087.55)
(0 0 875.732)
(0 0 809.721)
(0 0 951.603)
(0 0 847.721)
(0 0 970.052)
(0 0 848.309)
(0 0 993.751)
(0 0 902.381)
(0 0 1264.8)
(0 0 1096.77)
(0 0 1175.6)
(0 0 792.545)
(0 0 473.591)
(0 0 44.6107)
(0 0 426.677)
(0 0 1127.38)
(0 0 1203.72)
(0 0 1053.28)
(0 0 997.722)
(0 0 1162.12)
(0 0 436.122)
(0 0 499.591)
(0 0 430.101)
(0 0 631.301)
(0 0 957.129)
(0 0 1230.33)
(0 0 961.261)
(0 0 299.112)
(0 0 -242.357)
(0 0 -399.781)
(0 0 -768.931)
(0 0 -1276.25)
(0 0 -2137.86)
(0 0 -3738.51)
(0 0 -4998.28)
(0 0 -6142.54)
(0 0 -6018.23)
(0 0 -5845.64)
(0 0 -6346.8)
(0 0 -1695.66)
(0 0 4092.95)
(0 0 7588.19)
(0 0 11210.2)
(0 0 7373.33)
(0 0 -4162.54)
(0 0 -12915.6)
(0 0 -14627.2)
(0 0 -11421)
(0 0 -10100.7)
(0 0 -8573.61)
(0 0 -6978.09)
(0 0 -4785.56)
(0 0 -2004.96)
(0 0 2445.71)
(0 0 3447.64)
(0 0 -178.131)
(0 0 2313.98)
(0 0 3172.16)
(0 0 11707.4)
(0 0 -1372.76)
(0 0 -2264.02)
(0 0 -123.407)
(0 0 -585.054)
(0 0 -1218.98)
(0 0 -2063.61)
(0 0 -3021.86)
(0 0 -604.097)
(0 0 -2209.83)
(0 0 -3523.19)
(0 0 -1052.46)
(0 0 -1671.01)
(0 0 -1006.25)
(0 0 833.053)
(0 0 2866.43)
(0 0 -644.99)
(0 0 3126.25)
(0 0 6843.33)
(0 0 7345.09)
(0 0 7106.74)
(0 0 4424.92)
(0 0 2752.33)
(0 0 2828.9)
(0 0 2674.28)
(0 0 3123.32)
(0 0 3156.87)
(0 0 3239)
(0 0 2856.39)
(0 0 3105.92)
(0 0 3193.79)
(0 0 2851.36)
(0 0 3027.74)
(0 0 2807.78)
(0 0 2573.52)
(0 0 2027.91)
(0 0 1856.96)
(0 0 1848.36)
(0 0 1397.95)
(0 0 1329.08)
(0 0 1186.37)
(0 0 897.052)
(0 0 667.299)
(0 0 846.288)
(0 0 756.554)
(0 0 970.773)
(0 0 825.849)
(0 0 1197.31)
(0 0 1363.96)
(0 0 1519.2)
(0 0 1165.81)
(0 0 1534.03)
(0 0 1015.71)
(0 0 483.781)
(0 0 -93.5036)
(0 0 289.556)
(0 0 946.322)
(0 0 652.811)
(0 0 492.441)
(0 0 979.674)
(0 0 971.935)
(0 0 931.077)
(0 0 352.904)
(0 0 395.523)
(0 0 402.196)
(0 0 730.394)
(0 0 878.356)
(0 0 1263.1)
(0 0 714.601)
(0 0 296.947)
(0 0 -254.879)
(0 0 -466.604)
(0 0 -1100.6)
(0 0 -1924.53)
(0 0 -2813.65)
(0 0 -3914.06)
(0 0 -5119.63)
(0 0 -5596.94)
(0 0 -5516.34)
(0 0 -5081.5)
(0 0 -5274.96)
(0 0 210.368)
(0 0 3797.89)
(0 0 5913.86)
(0 0 9230.6)
(0 0 1938.77)
(0 0 -8977.24)
(0 0 -14611.2)
(0 0 -12072.5)
(0 0 -8477.94)
(0 0 -6305.07)
(0 0 -4378.32)
(0 0 -1687.09)
(0 0 1851.43)
(0 0 3588.27)
(0 0 3493.86)
(0 0 3622.21)
(0 0 1258.02)
(0 0 -479.849)
(0 0 3224.16)
(0 0 4234.54)
(0 0 -791.452)
(0 0 2939.85)
(0 0 9498.59)
(0 0 816.83)
(0 0 -2523.03)
(0 0 -2567.4)
(0 0 -4533.65)
(0 0 -232.437)
(0 0 2129.75)
(0 0 -3977.6)
(0 0 -4647.16)
(0 0 -4022.58)
(0 0 -3876.35)
(0 0 -2425.78)
(0 0 1614.05)
(0 0 -1470.01)
(0 0 1265.42)
(0 0 4158.13)
(0 0 5028.04)
(0 0 6694.52)
(0 0 5782.58)
(0 0 2417.17)
(0 0 1982.66)
(0 0 2696.76)
(0 0 3002.59)
(0 0 3160.89)
(0 0 3185.84)
(0 0 2688.89)
(0 0 2858.97)
(0 0 2809.96)
(0 0 2966.24)
(0 0 2646.74)
(0 0 2672.34)
(0 0 2337.32)
(0 0 2253.2)
(0 0 2031.02)
(0 0 1685.45)
(0 0 1339.61)
(0 0 1448.61)
(0 0 1007.67)
(0 0 681.499)
(0 0 797.834)
(0 0 558.88)
(0 0 785.479)
(0 0 745.573)
(0 0 965.034)
(0 0 757.354)
(0 0 868.799)
(0 0 1031.39)
(0 0 1230.42)
(0 0 678.706)
(0 0 210.91)
(0 0 265.839)
(0 0 1019.34)
(0 0 966.484)
(0 0 591.068)
(0 0 -42.4867)
(0 0 531.193)
(0 0 464.897)
(0 0 1015.34)
(0 0 600.102)
(0 0 543.957)
(0 0 216.203)
(0 0 543.619)
(0 0 571.462)
(0 0 646.022)
(0 0 744.908)
(0 0 362.59)
(0 0 247.802)
(0 0 -299.968)
(0 0 -521.407)
(0 0 -1212.78)
(0 0 -2333.59)
(0 0 -3319.24)
(0 0 -4165.96)
(0 0 -4686.59)
(0 0 -5205.08)
(0 0 -4911.36)
(0 0 -4179.12)
(0 0 -4483.33)
(0 0 878.39)
(0 0 2824.11)
(0 0 5502.72)
(0 0 7392.28)
(0 0 -4554.58)
(0 0 -13197.5)
(0 0 -11901.1)
(0 0 -8847.65)
(0 0 -5802.54)
(0 0 -2594.51)
(0 0 1371.57)
(0 0 5654.09)
(0 0 6486.46)
(0 0 3968.78)
(0 0 2938.1)
(0 0 799.038)
(0 0 -767.396)
(0 0 1667.24)
(0 0 3562.01)
(0 0 1830.16)
(0 0 -1826.79)
(0 0 1428.63)
(0 0 6820.45)
(0 0 1994.22)
(0 0 -2961.13)
(0 0 -3290.42)
(0 0 -4163.21)
(0 0 636.471)
(0 0 3537.67)
(0 0 -4204.67)
(0 0 -6382.35)
(0 0 -6059.58)
(0 0 -6065.61)
(0 0 -4665.39)
(0 0 290.179)
(0 0 -1691.36)
(0 0 -811.242)
(0 0 2951.87)
(0 0 2815.81)
(0 0 5178.04)
(0 0 5802.77)
(0 0 2671.31)
(0 0 1734.74)
(0 0 2303.51)
(0 0 2945.79)
(0 0 2996.97)
(0 0 2816.05)
(0 0 2883.17)
(0 0 2717.78)
(0 0 2771.54)
(0 0 2800.91)
(0 0 2543.88)
(0 0 2508.14)
(0 0 2407.8)
(0 0 2100.3)
(0 0 1890.21)
(0 0 1829.52)
(0 0 1428.27)
(0 0 1365.26)
(0 0 1162.52)
(0 0 724.729)
(0 0 479.849)
(0 0 592.377)
(0 0 360.687)
(0 0 997.441)
(0 0 634.865)
(0 0 1217.55)
(0 0 918.302)
(0 0 1203.07)
(0 0 699.709)
(0 0 595.258)
(0 0 -33.2431)
(0 0 641.624)
(0 0 624.416)
(0 0 -97.1422)
(0 0 25.1431)
(0 0 296.538)
(0 0 136.689)
(0 0 248.786)
(0 0 700.255)
(0 0 699.152)
(0 0 294.163)
(0 0 433.619)
(0 0 355.261)
(0 0 748.019)
(0 0 738.313)
(0 0 501.045)
(0 0 162.453)
(0 0 463.32)
(0 0 -405.288)
(0 0 -706.424)
(0 0 -1550.14)
(0 0 -2349.31)
(0 0 -3286.75)
(0 0 -4204.67)
(0 0 -4340.41)
(0 0 -4590.32)
(0 0 -4281.59)
(0 0 -3461.74)
(0 0 -3622.74)
(0 0 1465.61)
(0 0 2590.04)
(0 0 4760.74)
(0 0 845.923)
(0 0 -8516.73)
(0 0 -13645.1)
(0 0 -10229.6)
(0 0 -6146.8)
(0 0 -2580.39)
(0 0 2409.82)
(0 0 8965.67)
(0 0 11072.3)
(0 0 9465.85)
(0 0 9082.14)
(0 0 3438.83)
(0 0 2159.24)
(0 0 -1236.57)
(0 0 1339.5)
(0 0 4468.28)
(0 0 2382.55)
(0 0 -3041.33)
(0 0 -1270.37)
(0 0 4197.38)
(0 0 2650.81)
(0 0 -2907.06)
(0 0 -3845.68)
(0 0 -3743.95)
(0 0 4191.47)
(0 0 5098.29)
(0 0 -4716.75)
(0 0 -6736.59)
(0 0 -7097.41)
(0 0 -7931.61)
(0 0 -6504.46)
(0 0 -228.411)
(0 0 -1844.75)
(0 0 -1434.05)
(0 0 1661.19)
(0 0 2033.96)
(0 0 2815.43)
(0 0 3866.42)
(0 0 2642.28)
(0 0 1310.25)
(0 0 1930.77)
(0 0 2745.6)
(0 0 2995.1)
(0 0 3019.27)
(0 0 2819.55)
(0 0 2650.57)
(0 0 2633.44)
(0 0 2421.5)
(0 0 2686.72)
(0 0 2555.41)
(0 0 2218.71)
(0 0 1838.31)
(0 0 1949.15)
(0 0 1830.86)
(0 0 1748.78)
(0 0 1513.2)
(0 0 1170.15)
(0 0 1015.75)
(0 0 460.11)
(0 0 58.7821)
(0 0 211.451)
(0 0 913.111)
(0 0 617.086)
(0 0 880.661)
(0 0 1329.24)
(0 0 649.953)
(0 0 615.177)
(0 0 -170.999)
(0 0 -68.4439)
(0 0 -381.297)
(0 0 -266.913)
(0 0 122.184)
(0 0 384.253)
(0 0 -27.0397)
(0 0 375.3)
(0 0 371.589)
(0 0 110.762)
(0 0 355.783)
(0 0 504.297)
(0 0 127.082)
(0 0 518.827)
(0 0 350.967)
(0 0 398.5)
(0 0 857.312)
(0 0 217.078)
(0 0 433.552)
(0 0 -555.85)
(0 0 -1049.79)
(0 0 -1580.8)
(0 0 -2642.81)
(0 0 -3390.43)
(0 0 -3974.88)
(0 0 -3846.24)
(0 0 -4082.67)
(0 0 -3643.23)
(0 0 -3101.7)
(0 0 -3013.35)
(0 0 1284.58)
(0 0 3068.21)
(0 0 2806.2)
(0 0 -3600.71)
(0 0 -10889.7)
(0 0 -10719.7)
(0 0 -7801.7)
(0 0 -3941.89)
(0 0 -417.053)
(0 0 8976.62)
(0 0 14910.6)
(0 0 12430.6)
(0 0 13145.6)
(0 0 10296.7)
(0 0 6487.86)
(0 0 3385.17)
(0 0 2642.66)
(0 0 4023.65)
(0 0 2925.77)
(0 0 2971.97)
(0 0 -4279.38)
(0 0 -2907.8)
(0 0 2279.16)
(0 0 2926.46)
(0 0 -2817.73)
(0 0 -2791.99)
(0 0 -1449.6)
(0 0 12078.2)
(0 0 10246.4)
(0 0 -2763.47)
(0 0 -4115.26)
(0 0 -7415.78)
(0 0 -8805.48)
(0 0 -7795.48)
(0 0 -1058.12)
(0 0 -1272.16)
(0 0 -2938.42)
(0 0 1239.01)
(0 0 1671.13)
(0 0 1291.17)
(0 0 3203.49)
(0 0 2577.34)
(0 0 809.88)
(0 0 1709.93)
(0 0 2512.58)
(0 0 2997.32)
(0 0 2934.78)
(0 0 2806.98)
(0 0 2499.37)
(0 0 2259.63)
(0 0 2390.97)
(0 0 2534.76)
(0 0 2340.11)
(0 0 2330.74)
(0 0 1838.48)
(0 0 1730.04)
(0 0 2055.68)
(0 0 1668.32)
(0 0 1449.67)
(0 0 1511.47)
(0 0 1036.84)
(0 0 1081.35)
(0 0 431.243)
(0 0 648.382)
(0 0 457.919)
(0 0 1227.87)
(0 0 963.109)
(0 0 1454.87)
(0 0 891.389)
(0 0 -24.0677)
(0 0 -168.952)
(0 0 -399.114)
(0 0 320.639)
(0 0 151.557)
(0 0 616.073)
(0 0 -19.498)
(0 0 146.931)
(0 0 -24.924)
(0 0 131.239)
(0 0 -2.29986)
(0 0 466.693)
(0 0 137.509)
(0 0 379.674)
(0 0 131.598)
(0 0 653.879)
(0 0 835.22)
(0 0 1134.68)
(0 0 110.801)
(0 0 337.744)
(0 0 -614.326)
(0 0 -1233.3)
(0 0 -1806.19)
(0 0 -2457.79)
(0 0 -3066.42)
(0 0 -3321.49)
(0 0 -3278.83)
(0 0 -3546.44)
(0 0 -3152.22)
(0 0 -2735.16)
(0 0 -2160.66)
(0 0 1899.57)
(0 0 2507.3)
(0 0 1380.38)
(0 0 -6329.27)
(0 0 -12017.1)
(0 0 -9731.25)
(0 0 -5914.89)
(0 0 -2538.3)
(0 0 4145.24)
(0 0 12961.4)
(0 0 15303)
(0 0 13161.8)
(0 0 18187.8)
(0 0 8240.84)
(0 0 10829.7)
(0 0 1580.78)
(0 0 2861.98)
(0 0 5238.33)
(0 0 4770.01)
(0 0 533.936)
(0 0 -3726.96)
(0 0 408.689)
(0 0 1849.48)
(0 0 1259.09)
(0 0 -2122.36)
(0 0 -574.143)
(0 0 4919.62)
(0 0 17908.6)
(0 0 8260.33)
(0 0 4028.75)
(0 0 -1038.41)
(0 0 -6900.67)
(0 0 -8659.59)
(0 0 -8793.62)
(0 0 -2091.43)
(0 0 -641.006)
(0 0 -4072.89)
(0 0 1226.18)
(0 0 1049.43)
(0 0 816.499)
(0 0 1981.2)
(0 0 1826.22)
(0 0 500)
(0 0 1243.55)
(0 0 2460.09)
(0 0 2661.05)
(0 0 2725.81)
(0 0 2647.33)
(0 0 2411.88)
(0 0 2268.56)
(0 0 2483.62)
(0 0 2333.12)
(0 0 2390.48)
(0 0 2234.91)
(0 0 1849.54)
(0 0 1845.56)
(0 0 2104.16)
(0 0 1968.55)
(0 0 1591.81)
(0 0 1674.4)
(0 0 1345.92)
(0 0 1441.52)
(0 0 928.911)
(0 0 122.545)
(0 0 904.182)
(0 0 680.374)
(0 0 1284.61)
(0 0 695.454)
(0 0 839.431)
(0 0 94.9708)
(0 0 -641.705)
(0 0 112.79)
(0 0 281.053)
(0 0 836.088)
(0 0 130.382)
(0 0 213.524)
(0 0 -207.792)
(0 0 187.79)
(0 0 -181.606)
(0 0 60.2886)
(0 0 47.5061)
(0 0 302.219)
(0 0 -132.257)
(0 0 221.972)
(0 0 -123.777)
(0 0 443.598)
(0 0 1092.45)
(0 0 -89.5411)
(0 0 477.013)
(0 0 -683.158)
(0 0 -1337.39)
(0 0 -1580.37)
(0 0 -2137.47)
(0 0 -2775.39)
(0 0 -2952.77)
(0 0 -2711.28)
(0 0 -3011.78)
(0 0 -2744.34)
(0 0 -2258.09)
(0 0 -1060.89)
(0 0 1580.71)
(0 0 2651.09)
(0 0 -176.004)
(0 0 -8037.25)
(0 0 -10564.4)
(0 0 -8766.29)
(0 0 -4808.63)
(0 0 -619.416)
(0 0 6834.25)
(0 0 12296.3)
(0 0 14188.9)
(0 0 7768.24)
(0 0 8059.37)
(0 0 5820.56)
(0 0 7791.57)
(0 0 3426.25)
(0 0 2503.87)
(0 0 5157.59)
(0 0 8021.17)
(0 0 -3714.34)
(0 0 -3336.66)
(0 0 1784.2)
(0 0 4605.7)
(0 0 717.633)
(0 0 -797.667)
(0 0 1994.13)
(0 0 15153.3)
(0 0 18005.4)
(0 0 5664.08)
(0 0 6840.76)
(0 0 -631.293)
(0 0 -5616.18)
(0 0 -7816.8)
(0 0 -9405.85)
(0 0 -3328.86)
(0 0 209.93)
(0 0 -3566.04)
(0 0 1131.95)
(0 0 1171.9)
(0 0 31.947)
(0 0 662.96)
(0 0 1642.45)
(0 0 400.713)
(0 0 938.3)
(0 0 2188.39)
(0 0 2484.17)
(0 0 2533.72)
(0 0 2500.84)
(0 0 2223.93)
(0 0 2158.89)
(0 0 2217.44)
(0 0 2331.17)
(0 0 2248.97)
(0 0 1874.1)
(0 0 2081.13)
(0 0 2069.78)
(0 0 1865.78)
(0 0 1802.28)
(0 0 1871.36)
(0 0 1546.16)
(0 0 1737.79)
(0 0 1301.68)
(0 0 1151.33)
(0 0 194.692)
(0 0 1025.46)
(0 0 1065.13)
(0 0 518.136)
(0 0 855.573)
(0 0 51.7763)
(0 0 -160.09)
(0 0 -624.069)
(0 0 693.408)
(0 0 938.927)
(0 0 229.492)
(0 0 393.207)
(0 0 -191.66)
(0 0 -133.732)
(0 0 31.1541)
(0 0 -80.1379)
(0 0 -314.713)
(0 0 64.5633)
(0 0 -147.356)
(0 0 244.197)
(0 0 217.986)
(0 0 -212.681)
(0 0 1006.38)
(0 0 586)
(0 0 -188.928)
(0 0 373.679)
(0 0 -738.302)
(0 0 -1237.81)
(0 0 -1629.9)
(0 0 -2142.98)
(0 0 -2330.52)
(0 0 -2376.05)
(0 0 -2181.62)
(0 0 -2464.89)
(0 0 -2330.69)
(0 0 -1848.62)
(0 0 30.3088)
(0 0 1631.08)
(0 0 2329.76)
(0 0 -1326.07)
(0 0 -8754.11)
(0 0 -9666.33)
(0 0 -7125.17)
(0 0 -3496.74)
(0 0 1203.38)
(0 0 8010.89)
(0 0 10681.7)
(0 0 8698.36)
(0 0 5570.84)
(0 0 1353.96)
(0 0 734.594)
(0 0 81.6424)
(0 0 2386.92)
(0 0 675.311)
(0 0 1907.68)
(0 0 2999.93)
(0 0 -6439.06)
(0 0 -1599.24)
(0 0 3949.24)
(0 0 3943.41)
(0 0 356.219)
(0 0 -100.397)
(0 0 3666.36)
(0 0 9094.82)
(0 0 16930.1)
(0 0 4418.41)
(0 0 10616)
(0 0 -98.0056)
(0 0 -4858.47)
(0 0 -6806.54)
(0 0 -9171.81)
(0 0 -4723.48)
(0 0 1145.49)
(0 0 -3391.3)
(0 0 384.512)
(0 0 213.357)
(0 0 -825.818)
(0 0 180.449)
(0 0 781.273)
(0 0 852.56)
(0 0 1125.62)
(0 0 2072.28)
(0 0 2415.81)
(0 0 2305.94)
(0 0 2400.52)
(0 0 2215.77)
(0 0 1886.27)
(0 0 2028.56)
(0 0 2101.71)
(0 0 1945.58)
(0 0 1941.05)
(0 0 1815.5)
(0 0 1946.42)
(0 0 1488.33)
(0 0 1955.17)
(0 0 1709.98)
(0 0 1928.24)
(0 0 1601.26)
(0 0 1585.13)
(0 0 695.289)
(0 0 507.364)
(0 0 591.873)
(0 0 456.83)
(0 0 867.28)
(0 0 98.1124)
(0 0 48.6248)
(0 0 -653.869)
(0 0 81.8141)
(0 0 994.632)
(0 0 477.005)
(0 0 573.322)
(0 0 -22.8648)
(0 0 -0.66514)
(0 0 106.299)
(0 0 -312.499)
(0 0 -263.093)
(0 0 -368.904)
(0 0 -392.182)
(0 0 -132.806)
(0 0 -496.65)
(0 0 155.062)
(0 0 25.3959)
(0 0 964.934)
(0 0 936.93)
(0 0 285.395)
(0 0 501.013)
(0 0 -780.738)
(0 0 -1368.25)
(0 0 -1604.86)
(0 0 -1723.31)
(0 0 -2064.89)
(0 0 -1686.63)
(0 0 -1678.16)
(0 0 -1895.48)
(0 0 -1544.88)
(0 0 -1384.43)
(0 0 445.305)
(0 0 2494.48)
(0 0 1379.24)
(0 0 -1852.06)
(0 0 -9010.14)
(0 0 -8933.67)
(0 0 -6471.37)
(0 0 -2233.62)
(0 0 2227.22)
(0 0 6184.47)
(0 0 9189.84)
(0 0 4572.43)
(0 0 1859.39)
(0 0 -570.709)
(0 0 -1835.31)
(0 0 -2152.66)
(0 0 -2254.23)
(0 0 -1054.73)
(0 0 -766.276)
(0 0 -3411.99)
(0 0 -7033.32)
(0 0 909.54)
(0 0 2360.03)
(0 0 1088.84)
(0 0 -1594.05)
(0 0 1372.7)
(0 0 3438.33)
(0 0 9989.41)
(0 0 18961.5)
(0 0 4426.53)
(0 0 8176.21)
(0 0 328.593)
(0 0 -5691.17)
(0 0 -5824.15)
(0 0 -8666.04)
(0 0 -6096.43)
(0 0 1338.44)
(0 0 -3576.79)
(0 0 -1767.81)
(0 0 -1420.02)
(0 0 -1294.15)
(0 0 -626.535)
(0 0 835.372)
(0 0 857.66)
(0 0 1539.96)
(0 0 2353.98)
(0 0 2365.63)
(0 0 2325.97)
(0 0 2199.1)
(0 0 2146.06)
(0 0 1675.1)
(0 0 1752.01)
(0 0 1694.78)
(0 0 2048.88)
(0 0 1704.89)
(0 0 1883.72)
(0 0 1711.36)
(0 0 1624.99)
(0 0 1657.72)
(0 0 2028.54)
(0 0 1701.61)
(0 0 1839.86)
(0 0 1144.7)
(0 0 333.806)
(0 0 -794.224)
(0 0 -217.048)
(0 0 936.857)
(0 0 204.138)
(0 0 371.324)
(0 0 -676.379)
(0 0 -437.088)
(0 0 -345.819)
(0 0 663.473)
(0 0 994.597)
(0 0 50.437)
(0 0 203.711)
(0 0 381.692)
(0 0 -97.3446)
(0 0 -187.83)
(0 0 -543.822)
(0 0 -197.14)
(0 0 -366.487)
(0 0 -774.752)
(0 0 -336.32)
(0 0 -404.75)
(0 0 871.138)
(0 0 412.535)
(0 0 878.168)
(0 0 814.144)
(0 0 408.647)
(0 0 -730.649)
(0 0 -1197.12)
(0 0 -1235.59)
(0 0 -1527.5)
(0 0 -1455.66)
(0 0 -1212.63)
(0 0 -1129.86)
(0 0 -1140.9)
(0 0 -930.107)
(0 0 -171.014)
(0 0 1216.62)
(0 0 2739.93)
(0 0 1436.5)
(0 0 -2069.69)
(0 0 -8783.36)
(0 0 -8327.86)
(0 0 -5374.66)
(0 0 -1873.89)
(0 0 1695.48)
(0 0 5478.74)
(0 0 4997.96)
(0 0 -336.469)
(0 0 -3864.38)
(0 0 -3601.44)
(0 0 -4618.61)
(0 0 -4565.79)
(0 0 -4826.64)
(0 0 -3859.8)
(0 0 1059.59)
(0 0 -7825)
(0 0 -8169.67)
(0 0 -2900.7)
(0 0 -492.014)
(0 0 -2596.49)
(0 0 -1861.19)
(0 0 129.463)
(0 0 533.284)
(0 0 8910.31)
(0 0 6275.42)
(0 0 1447.01)
(0 0 -2629.6)
(0 0 -4455.3)
(0 0 -6018.95)
(0 0 -5800.82)
(0 0 -6891.47)
(0 0 -6256.02)
(0 0 724.29)
(0 0 -3809.58)
(0 0 -5058.72)
(0 0 -1767.44)
(0 0 -2010.41)
(0 0 -903.701)
(0 0 463.942)
(0 0 1144.74)