/*--------------------------------*- C++ -*----------------------------------*\
| =========                 |                                                 |
| \\      /  F ield         | foam-extend: Open Source CFD                    |
|  \\    /   O peration     | Version:     5.0                                |
|   \\  /    A nd           | Web:         http://www.foam-extend.org         |
|    \\/     M anipulation  |                                                 |
\*---------------------------------------------------------------------------*/
FoamFile
{
    version     2.0;
    format      ascii;
    class       volScalarField;
    location    "0.08";
    object      p;
}
// * * * * * * * * * * * * * * * * * * * * * * * * * * * * * * * * * * * * * //

dimensions      [1 -1 -2 0 0 0 0];

internalField   nonuniform List<scalar> 
4000
(
-1.62853e+06
-1.63077e+06
-1.62942e+06
-1.62686e+06
-1.62457e+06
-1.62147e+06
-1.6156e+06
-1.6049e+06
-1.5955e+06
-1.59055e+06
-1.58798e+06
-1.58458e+06
-1.57142e+06
-1.54797e+06
-1.4719e+06
-1.35201e+06
-1.24289e+06
-1.12826e+06
-1.01007e+06
-920254
-862718
-838079
-849469
-857943
-837242
-812371
-796069
-792684
-756752
-656588
-464922
-319370
-327980
-376429
-347302
-301266
-277194
-269451
-259238
-214561
-117586
-1375.86
56955.2
64752.8
61815.1
60989.7
64537.6
73836.4
92254.4
101778
104894
111652
118653
122852
124976
125977
121213
115580
111988
107241
101377
94920.3
88139.3
81231.5
75434.5
68166.5
63005.5
60423.4
57077.9
54015
51555.2
50078.2
49025
47434
45655.9
43448
41050.7
38267
35591.9
33858
33516.5
34198.9
34580.3
34408.6
32112
28559.7
26502.4
24349.9
21722
19111.5
15061.8
11207.4
8332.93
6488.09
6279.22
6498.03
6462.11
5625.07
4000.55
1963.42
-1.62831e+06
-1.63055e+06
-1.62907e+06
-1.62643e+06
-1.62406e+06
-1.62084e+06
-1.61512e+06
-1.60501e+06
-1.59537e+06
-1.59101e+06
-1.58778e+06
-1.58237e+06
-1.57048e+06
-1.54861e+06
-1.47331e+06
-1.35323e+06
-1.24214e+06
-1.12784e+06
-1.01005e+06
-920831
-865477
-843791
-853762
-861655
-839700
-811936
-797014
-789844
-757650
-661547
-462823
-314100
-330171
-375761
-341278
-294993
-275310
-269893
-260077
-217189
-116253
1564.07
60311.3
68859.9
62984.5
63259.7
65914
74522.2
92354.1
100930
104332
110767
118371
122744
124938
125596
120511
115315
111723
106868
101056
94462.8
88084
81031.6
75338.1
67949.3
62806.1
60436.5
57012.1
53935.6
51478.3
49991.5
48942.2
47314.1
45534.1
43317.3
40963
38192
35548.6
33844.7
33450.6
34090.6
34422
34328.7
32028.2
28522.8
26546
24434.9
21852.3
19213.3
15075.2
11251.9
8464.88
6547.84
6324.74
6528.78
6477.93
5652.81
3975.66
1901.75
-1.62806e+06
-1.63048e+06
-1.62886e+06
-1.62605e+06
-1.62362e+06
-1.62036e+06
-1.61444e+06
-1.60443e+06
-1.59433e+06
-1.58984e+06
-1.58736e+06
-1.58132e+06
-1.57302e+06
-1.55671e+06
-1.47695e+06
-1.35326e+06
-1.24275e+06
-1.12752e+06
-1.00873e+06
-919668
-865708
-845495
-855728
-864700
-841937
-809442
-795028
-790018
-765655
-668916
-460382
-310982
-331877
-377161
-336282
-292609
-273466
-269945
-262339
-220757
-116192
10214.8
68587.7
73976.5
64878
64784.2
67893.4
76181.3
92012.4
100445
104496
110939
118744
123099
125056
125507
120116
115307
111494
106608
100806
94031.1
87756
81117.7
75448.2
67681.5
62554.3
60373.7
57083.3
53931.4
51384.4
49961.4
48824.1
47214.2
45484.1
43213.5
40902.1
38110.8
35474.4
33787.5
33361
34024.4
34395.8
34365.1
31980.2
28478.9
26572.9
24507.4
22005.5
19323.7
15060.5
11204.9
8434.73
6497.51
6383.66
6643.73
6449.49
5733.75
3964.37
1779.26
-1.62781e+06
-1.63047e+06
-1.62874e+06
-1.6257e+06
-1.62327e+06
-1.61996e+06
-1.61382e+06
-1.60379e+06
-1.5935e+06
-1.58799e+06
-1.58588e+06
-1.57978e+06
-1.579e+06
-1.56668e+06
-1.48038e+06
-1.35136e+06
-1.24353e+06
-1.12718e+06
-1.00613e+06
-917874
-864963
-845007
-858072
-867319
-842364
-805165
-791298
-791510
-776477
-681411
-462560
-311903
-332211
-380961
-335179
-292005
-271524
-269591
-264982
-229039
-119493
19873.9
75264.1
79558.9
66549.2
65181.4
70214.9
79372.9
91706.4
100030
104852
112090
119655
123631
125348
125423
120257
115456
111330
106426
100662
93743.5
87494.3
81275.5
75342.4
67679.7
62417.6
60405
57249.4
53936.1
51385.2
49867.4
48737.6
47146.9
45447.6
43172.1
40803.6
38013
35372.1
33684.4
33326.3
33998.7
34447.7
34461.7
31909.9
28418.2
26574.2
24537.8
22178.2
19397.8
15014.8
11110.3
8296.93
6464.45
6396.76
6758.65
6586.7
5832.37
3935.64
1711.01
-1.62755e+06
-1.63055e+06
-1.6287e+06
-1.62546e+06
-1.62304e+06
-1.61974e+06
-1.6134e+06
-1.60318e+06
-1.59252e+06
-1.58612e+06
-1.58347e+06
-1.57665e+06
-1.58523e+06
-1.57345e+06
-1.48276e+06
-1.34931e+06
-1.24471e+06
-1.12717e+06
-1.00352e+06
-916092
-864487
-845328
-861089
-871713
-841992
-799428
-782465
-790345
-790350
-702879
-473962
-312498
-327007
-380413
-338813
-292873
-268607
-269328
-270528
-242393
-126316
25056.9
76079.7
81733.9
65523.5
63391.4
71814.2
83305.1
91359.2
98531.5
105756
113666
120974
124330
125801
125718
120499
115668
111343
106312
100605
93808
87445
81215.2
74962.8
67918.6
62625.3
60394.6
57264
54129.4
51523.3
49699.5
48657.4
47151.1
45383
43160.5
40661.6
37875.9
35268.7
33546.3
33356.3
34030.4
34574.7
34594.2
31815.3
28300.6
26500.6
24581
22237.4
19467.9
14963.1
11056.3
8124.13
6328.89
6441.71
6919.55
6805.82
5949.03
3966.6
1530.98
-1.62729e+06
-1.6307e+06
-1.62874e+06
-1.62528e+06
-1.62294e+06
-1.61966e+06
-1.61298e+06
-1.60295e+06
-1.59187e+06
-1.58445e+06
-1.57941e+06
-1.57331e+06
-1.59148e+06
-1.57776e+06
-1.48218e+06
-1.34747e+06
-1.24695e+06
-1.12647e+06
-1.001e+06
-917342
-866532
-850537
-864449
-871740
-836111
-791218
-768876
-788040
-809243
-734465
-479499
-301750
-316823
-374901
-346943
-296009
-264986
-266753
-275641
-259159
-137173
25967.7
74716.8
79889.1
62495.7
59974.3
72895.6
86200.9
89424.8
96733.3
106888
115408
122559
125315
126479
126291
120821
115976
111464
106303
100673
93967.9
87488.8
81126.7
75073.3
68031.7
62817.1
60451.3
57281.6
54380
51611.2
49590.9
48590.2
47127.1
45378.5
43148.6
40573.9
37754.6
35152.8
33406.6
33399.5
34117.4
34737.8
34742.9
31777.4
28104.3
26443.7
24543.2
22294.9
19509.8
15008.8
10948.1
7960.92
6139.61
6506.64
7144.04
7091.15
6170.01
3979.41
1432.89
-1.62706e+06
-1.63091e+06
-1.62885e+06
-1.62525e+06
-1.623e+06
-1.6197e+06
-1.61278e+06
-1.60282e+06
-1.59122e+06
-1.58229e+06
-1.57518e+06
-1.57137e+06
-1.59422e+06
-1.58049e+06
-1.47946e+06
-1.34662e+06
-1.25078e+06
-1.1262e+06
-1.00237e+06
-920503
-876680
-859947
-868658
-866098
-823618
-774877
-745375
-781880
-837220
-778695
-475148
-281762
-298568
-367578
-362367
-296088
-256545
-265365
-281530
-275167
-146458
26634
72647.7
74336.4
62071.6
54254.9
72863.7
88786.1
86589
95652.6
107982
117212
124128
126535
127369
126527
121476
116474
111665
106454
100861
94247.1
87605.4
81207.4
75191.8
68274.6
63088.1
60474.5
57412.1
54572.8
51604.9
49576.6
48554.9
47142.6
45403.8
43161.1
40502.2
37638.7
35043.2
33278.5
33473.4
34248.6
34910.6
34848.4
31698.2
27910.5
26255.6
24536.3
22431.4
19606.8
15076.3
10771.7
7671.09
6100.81
6620.72
7414.26
7418.74
6464.41
3992.69
1181.6
-1.62687e+06
-1.63116e+06
-1.62905e+06
-1.62533e+06
-1.62323e+06
-1.61991e+06
-1.61267e+06
-1.60234e+06
-1.5904e+06
-1.57989e+06
-1.57048e+06
-1.57062e+06
-1.59272e+06
-1.58337e+06
-1.47549e+06
-1.34702e+06
-1.25676e+06
-1.13026e+06
-1.01024e+06
-924122
-891844
-870116
-870250
-853082
-809919
-761261
-723422
-780960
-877484
-823558
-472934
-263102
-279159
-370641
-378139
-298793
-250253
-268745
-286652
-288884
-152122
27948.4
69789.9
67376.6
62395.4
45536.9
73581.1
91298.8
84212.3
95388.2
109166
119262
125254
127673
128677
126955
122236
117010
111958
106910
100864
94603.1
87874.9
81405
75422.9
68564.3
63405.9
60439.7
57517.5
54636.2
51625.6
49675.8
48589
47119.2
45476.5
43185.2
40458.6
37566.8
34937.8
33239.3
33510
34307.8
34923.1
34887.7
31670.3
27566
25998.7
24547.9
22738.9
19911.3
15112
10754.9
7503.5
5991.51
6746.26
7692.27
7802.65
6827.91
3881.87
883.282
-1.62678e+06
-1.63144e+06
-1.6293e+06
-1.62555e+06
-1.62365e+06
-1.62033e+06
-1.61259e+06
-1.60157e+06
-1.58929e+06
-1.57682e+06
-1.56576e+06
-1.57029e+06
-1.58866e+06
-1.58787e+06
-1.47255e+06
-1.34932e+06
-1.26165e+06
-1.13556e+06
-1.01666e+06
-938709
-904879
-876506
-865255
-840987
-801952
-750253
-704799
-782011
-907582
-852054
-478800
-272941
-275189
-379704
-380817
-304136
-256435
-275036
-294734
-300225
-154732
30089.4
67430.2
60799.1
58435.6
34440.9
76141.1
94296.4
81730.4
96355.6
111204
120874
126350
129415
130071
127614
122918
117603
112303
107053
101134
95090.8
88248.9
81654.4
75744.8
69104.3
63720.4
60257.1
57475.3
54720.5
51752.7
49854.2
48672.4
47150.1
45452.9
43232.7
40470.7
37503.9
34867.1
33171.4
33533.1
34321.1
34818.8
34792.6
31508.3
27233
25634.7
24647.9
23032.2
20086.2
15341.9
10947
7388.23
6067.77
6957.36
8039.04
8226.05
7238.07
3659.78
491.511
-1.62679e+06
-1.63178e+06
-1.62964e+06
-1.62594e+06
-1.62401e+06
-1.62076e+06
-1.61255e+06
-1.60091e+06
-1.58757e+06
-1.5734e+06
-1.56168e+06
-1.56872e+06
-1.58477e+06
-1.59209e+06
-1.47412e+06
-1.3562e+06
-1.26778e+06
-1.14362e+06
-1.01738e+06
-956487
-920446
-883250
-855853
-827678
-793263
-741998
-691271
-770635
-916783
-884420
-464965
-288972
-289917
-384888
-377083
-303458
-273692
-280658
-301535
-306494
-158417
33413.2
64103.3
55294
49497.2
26328.2
78114.8
96871.1
79663.3
99552.2
113328
121320
127782
131386
131555
128489
123639
118399
112735
107163
101458
95611
88611.4
81970.5
76149.8
69696.1
64012.6
60112
57434.1
54882.9
51903.1
50050.2
48807.6
47175.6
45471
43336.3
40525.1
37485.5
34797.7
33201.8
33544.7
34243.5
34596.2
34395
31174.8
26837.5
25351.5
24673.8
23037.9
20149.6
15603.9
11348
7556.24
6211.51
7205.09
8411.21
8621.25
7615.07
3438.78
165.615
-1.62688e+06
-1.63214e+06
-1.63008e+06
-1.62641e+06
-1.62451e+06
-1.62099e+06
-1.61237e+06
-1.59981e+06
-1.58573e+06
-1.57031e+06
-1.55902e+06
-1.56725e+06
-1.58168e+06
-1.59813e+06
-1.47477e+06
-1.36238e+06
-1.2685e+06
-1.15174e+06
-1.03125e+06
-967984
-931521
-889531
-847169
-814918
-788847
-740259
-690303
-758567
-909424
-906950
-464453
-293838
-306133
-388654
-377147
-300719
-285618
-283976
-302661
-309468
-166929
35228.3
60415.4
51894.8
39250.2
24641.1
76611.2
98893.3
77357.3
103644
113461
121931
129396
133269
133054
129583
124481
119256
113246
107293
101812
96181.3
88966.4
82260.7
76679.9
70288.3
64307.8
59978.6
57460.7
55044.8
52057.6
50271.4
48973.7
47198.1
45546.6
43481.8
40649.1
37499.7
34763.1
33257.2
33507.3
34017.3
34140.6
33676.9
30617.7
26318.1
24877.1
24398.6
23032.1
20314.1
15699
11627.2
7826.62
6531.13
7572.02
8724.11
8943.19
7990.62
3252.23
-208.567
-1.62704e+06
-1.63254e+06
-1.63053e+06
-1.62686e+06
-1.62487e+06
-1.62097e+06
-1.61173e+06
-1.59858e+06
-1.58392e+06
-1.56726e+06
-1.55695e+06
-1.56674e+06
-1.57949e+06
-1.60678e+06
-1.47131e+06
-1.36429e+06
-1.27008e+06
-1.15981e+06
-1.04948e+06
-985368
-943338
-895426
-843822
-808852
-790774
-750927
-698959
-759624
-899948
-904330
-471992
-313542
-325292
-397931
-383527
-296759
-290067
-288408
-304196
-314820
-183294
37375.7
58037
49095.2
34408.9
25251.6
74857.1
97659.5
75419.5
110312
113186
122323
129877
134833
134562
130342
125517
120178
113884
107430
102206
96816.8
89346.3
82464.8
77203.7
70960.1
64427.9
60032.7
57716.9
55086.4
52159.9
50485.1
49000.9
47218.7
45684.3
43687.6
40834.8
37529.2
34720.1
33240.4
33391.9
33628.1
33461
32757.4
29727
25669.3
24363.6
24158.5
23068.7
20311.1
15739.2
11913.4
8113.62
6867.06
8014.41
8972.66
9224.81
8363.26
3139.08
-476.082
-1.62721e+06
-1.63298e+06
-1.63086e+06
-1.62732e+06
-1.62516e+06
-1.62068e+06
-1.61078e+06
-1.59719e+06
-1.58197e+06
-1.56439e+06
-1.5545e+06
-1.56561e+06
-1.57826e+06
-1.61285e+06
-1.46416e+06
-1.36359e+06
-1.2785e+06
-1.1708e+06
-1.05898e+06
-999628
-959480
-901432
-845475
-812212
-795500
-763368
-714598
-766404
-900375
-911245
-483500
-347327
-351357
-394275
-378820
-292786
-294908
-292911
-311866
-322077
-200826
39545.5
57347.9
47925.3
34746
21321.6
74653.1
94068.6
75686.4
116874
113597
120853
129898
136260
135756
131063
126669
121254
114614
107622
102594
97134.2
89938.6
83034.1
77472.9
71412
64743.3
60376.8
57914.7
55090
52323.9
50594.9
48954.4
47272.4
45890.9
43906.9
41080.4
37613.5
34702.2
33110
33193.6
33130.7
32726.1
31830.7
28882.3
24957.2
24077
23914.4
22916.7
20308.2
15628.1
12155.1
8467.22
7200.35
8469.06
9168.62
9409.08
8754.83
3197.82
-740.621
-1.62734e+06
-1.63346e+06
-1.63106e+06
-1.62758e+06
-1.62521e+06
-1.62026e+06
-1.60958e+06
-1.59557e+06
-1.57975e+06
-1.56156e+06
-1.55219e+06
-1.56162e+06
-1.58034e+06
-1.61781e+06
-1.45623e+06
-1.35528e+06
-1.29595e+06
-1.18215e+06
-1.06798e+06
-1.01336e+06
-975686
-910861
-845815
-812786
-803602
-774171
-725734
-769211
-897851
-927283
-498040
-369032
-367889
-372143
-362234
-292996
-301847
-302954
-331608
-327463
-202684
46222.6
58517.9
45234.4
32563.9
18380.3
78060.1
89984.9
79133.3
121051
113261
120671
129925
137228
136855
131773
127809
122401
115151
108101
102989
97413.6
90502.1
83697.5
77775.9
71818.4
65272
60591.1
58090.2
55251.9
52404.6
50578.7
48956.5
47353.8
46081.3
44171
41349.1
37755.5
34633.8
32961.1
32919.1
32534.7
31920.7
31030.6
27964.2
24295.4
23549.9
23467.7
22697.9
20258
15484.7
12263.5
8806.17
7580.44
8910.33
9241.31
9435.68
9195.14
3382.36
-962.807
-1.6274e+06
-1.6339e+06
-1.63128e+06
-1.62762e+06
-1.62488e+06
-1.61948e+06
-1.60846e+06
-1.59382e+06
-1.57696e+06
-1.55896e+06
-1.54972e+06
-1.55695e+06
-1.58624e+06
-1.62291e+06
-1.44457e+06
-1.35099e+06
-1.32363e+06
-1.18709e+06
-1.07284e+06
-1.0297e+06
-991359
-914789
-846685
-811646
-803634
-779065
-737202
-773924
-894112
-940519
-514434
-388606
-360491
-355882
-352441
-295746
-310790
-314088
-348858
-334615
-184069
57819.5
59399.9
40511
27481.8
20486.9
84925.8
86294.8
85413.7
123830
113265
120975
129515
138072
137494
132586
128821
123197
115903
108769
103419
97699.5
90714.3
84235.2
78351.7
72352.3
65606.4
60843.6
58345.7
55334.1
52548.2
50594.1
48930.1
47448.5
46262.1
44445.1
41628.7
37937.3
34578.7
32644.1
32628.5
31872.9
31157.7
30213
26714.9
23425.7
22756.1
22894.2
22415.9
20153.5
15439.5
12293.5
9092.12
7922.63
9324.67
9273
9387.37
9612.47
3681.48
-1030.47
-1.6274e+06
-1.63423e+06
-1.63133e+06
-1.62744e+06
-1.62433e+06
-1.61821e+06
-1.6071e+06
-1.59257e+06
-1.57432e+06
-1.55607e+06
-1.54734e+06
-1.55278e+06
-1.59303e+06
-1.62511e+06
-1.43636e+06
-1.35259e+06
-1.34347e+06
-1.1887e+06
-1.0771e+06
-1.04431e+06
-1.00366e+06
-918553
-839529
-806668
-800663
-783445
-751577
-783323
-889415
-943153
-513633
-408459
-355540
-350112
-351141
-297218
-321709
-324088
-351998
-346174
-155795
59801.4
58029.1
32198.8
21934.5
26101.5
93201.4
83164.9
92283.2
125706
114375
121475
128943
138915
137889
133162
129944
124310
116479
109436
103923
97755.2
90977.8
85000.3
78809.3
72648.7
65987.6
61156.2
58639.3
55560.7
52561.3
50617.3
48941.2
47469.2
46443.6
44761.1
41969.7
38172.6
34543.8
32316.2
32165.4
31247.6
30475.9
29348.3
25407.9
22428.4
22018.4
22399.1
22093.2
19967.4
15496
12257.2
9377.33
8249.12
9730.02
9166.42
9291.35
10149.9
4181.26
-931.756
-1.62727e+06
-1.63437e+06
-1.63122e+06
-1.62693e+06
-1.62335e+06
-1.61701e+06
-1.60594e+06
-1.59107e+06
-1.5718e+06
-1.55337e+06
-1.54589e+06
-1.54838e+06
-1.60053e+06
-1.6236e+06
-1.43239e+06
-1.35704e+06
-1.34945e+06
-1.18504e+06
-1.08316e+06
-1.06278e+06
-1.00408e+06
-922430
-830154
-801583
-799292
-790774
-769634
-797045
-882344
-926703
-501247
-429820
-381882
-348597
-352981
-302545
-332001
-332976
-347069
-334129
-136506
49134.4
55459
23847
19197.1
32442.2
98478
80273
94744.8
127457
116415
122223
129189
140131
138238
133454
130848
125281
117278
110099
104222
97948
91471.6
85542.5
79163.8
72886.1
66147.7
61593.2
58953.1
55804
52644.5
50541.8
48867.8
47519
46624.1
45039.7
42474.9
38603.2
34578.1
32115.4
31483.2
30503.5
29856.6
28404.2
24276.3
21627.2
21525.8
21992.2
21692.3
19691.3
15674.8
12148.9
9562.97
8529.86
10087.8
9029.1
9124.33
10622.9
4748.98
-661.149
-1.62699e+06
-1.63447e+06
-1.63095e+06
-1.6261e+06
-1.62227e+06
-1.61567e+06
-1.60446e+06
-1.58955e+06
-1.56957e+06
-1.55043e+06
-1.5453e+06
-1.5446e+06
-1.60737e+06
-1.61808e+06
-1.43276e+06
-1.3619e+06
-1.34442e+06
-1.17618e+06
-1.08893e+06
-1.08166e+06
-1.00412e+06
-920823
-827151
-794516
-795820
-797451
-785603
-807900
-876744
-899481
-515926
-453409
-419123
-348762
-348334
-312157
-342126
-328792
-337782
-298413
-131387
35859.6
54253.7
23178.5
16190.1
38602
101223
77876.4
92608
128149
117899
123220
130096
141116
138478
133754
131539
125946
118044
110736
104550
98199
91908.4
85957.8
79509.8
73023.5
66393.1
62219.9
59334
55865.6
52770.9
50392.7
48740.2
47522.8
46674.5
45230.1
43098.9
39351.4
34840.1
32060.2
31091.7
29817.9
29152.3
27320.7
23376.9
21084.5
21080.5
21532.6
21265
19445.2
15851.5
12089.3
9744.39
8799
10315.1
8811.56
8975.91
11169.4
5452.8
-247.978
-1.62647e+06
-1.63446e+06
-1.63051e+06
-1.62516e+06
-1.62084e+06
-1.614e+06
-1.60286e+06
-1.58838e+06
-1.56792e+06
-1.54717e+06
-1.54402e+06
-1.54335e+06
-1.61332e+06
-1.6091e+06
-1.43224e+06
-1.36763e+06
-1.33134e+06
-1.16652e+06
-1.09864e+06
-1.08691e+06
-1.01325e+06
-919709
-826843
-789916
-793483
-800207
-789313
-806640
-871137
-867366
-543580
-468946
-433638
-349713
-341163
-322481
-355107
-322341
-322526
-275052
-143176
25501
56248.3
25049.3
12221.3
44084
102569
75737.5
86738.9
127007
118926
124074
131565
142148
138758
133952
132386
126621
118756
111330
104943
98454.7
92188.1
86420.4
79647.7
73276.1
66915.2
62663.8
59490.5
56039.7
52897.2
50189.2
48502.6
47335.9
46628.1
45202.4
43634.8
40252.5
35410
32247.4
31102.4
29391.9
28424.9
26101
22760.8
20609.7
20605
21160.9
20934.5
19265.2
16016.5
12142.8
9902.85
9113.71
10503.8
8557.76
8881.77
11740.7
6176.19
309.764
-1.62567e+06
-1.63436e+06
-1.62996e+06
-1.62397e+06
-1.61947e+06
-1.61241e+06
-1.60131e+06
-1.58704e+06
-1.56642e+06
-1.54464e+06
-1.54224e+06
-1.54488e+06
-1.61972e+06
-1.59637e+06
-1.42859e+06
-1.37579e+06
-1.31545e+06
-1.15748e+06
-1.11631e+06
-1.08655e+06
-1.02298e+06
-917271
-827744
-785345
-793027
-800736
-788774
-802378
-867908
-836344
-561113
-477148
-431826
-352221
-336247
-331411
-361045
-319220
-314261
-280652
-170921
16141.3
55694.2
24526.8
7858.02
46909.9
102387
74119.1
80911
125119
119553
124520
133655
143345
139412
134229
133231
127471
119675
111959
105181
98647.9
92436.1
86570.8
79885.6
73584.2
67440.3
62987.1
59542.9
56254.1
52998.5
49914.7
48131.4
47010
46251.3
44731.9
43874.4
41163.2
36138.1
32693.1
31699.2
29042.2
27672.8
24823.7
22170.4
20215.5
20198.8
20944.7
20691.2
19091.6
16202.4
12296.9
10123.3
9482.7
10565.1
8324.1
8848.74
12260.3
6902.75
993.413
-1.62465e+06
-1.63414e+06
-1.62917e+06
-1.62272e+06
-1.61804e+06
-1.61074e+06
-1.59976e+06
-1.58587e+06
-1.56514e+06
-1.54362e+06
-1.54019e+06
-1.54849e+06
-1.62795e+06
-1.58404e+06
-1.42187e+06
-1.3869e+06
-1.30551e+06
-1.14909e+06
-1.132e+06
-1.08871e+06
-1.02336e+06
-907823
-830258
-786044
-795920
-800685
-786885
-799346
-862845
-811752
-570126
-484871
-433024
-359940
-335243
-334993
-360738
-315520
-295950
-285847
-194695
-540.596
44826.8
21809.5
6453.84
46813.6
99760.6
73813.8
78015.1
120866
120841
125145
136087
144797
140259
134656
134495
128372
120370
112618
105399
98808.6
92680.5
86590.1
80135.3
73845.3
67856.1
63294.7
59617.8
56465.7
53095.8
49558
47738.9
46262.6
45473
43809.2
43918.5
42175.5
37080.6
33724.1
32731.2
28832.8
26779.2
23655.2
21484.9
19884
19950.4
20877.5
20545.9
18955
16393.1
12522.6
10551
9850.33
10596.5
8005.67
8761.31
12647.6
7588.26
1793.98
-1.62345e+06
-1.63383e+06
-1.62825e+06
-1.6213e+06
-1.61656e+06
-1.6091e+06
-1.59823e+06
-1.58472e+06
-1.56422e+06
-1.54435e+06
-1.5379e+06
-1.55197e+06
-1.63582e+06
-1.57429e+06
-1.42088e+06
-1.39935e+06
-1.29811e+06
-1.14591e+06
-1.13693e+06
-1.09622e+06
-1.0252e+06
-903777
-831519
-791696
-797117
-798519
-786162
-799514
-850106
-785630
-575140
-493969
-440560
-371527
-334747
-333457
-357228
-316456
-275655
-276369
-201711
-18411.6
29830.6
18025.4
10043.5
43734.9
94857.6
74717.3
76417.2
115309
123316
125880
138823
145938
141239
134929
135852
129380
121180
113328
105623
98993.9
92851.1
86772.7
80398.7
73872.3
68195.6
63580.3
59700.9
56688.9
53189.4
49124.8
47186
45212.8
44300.8
42926.5
44007.6
43338.2
38190.5
35332.4
33957.3
28968.6
25619.7
22600.2
20728.4
19508.5
19851.9
20883.6
20484.3
18933.4
16534.4
12911.6
11148.3
10213.7
10674.3
7610.32
8746.47
12979.6
8342.75
2685.13
-1.622e+06
-1.63345e+06
-1.62729e+06
-1.61986e+06
-1.61512e+06
-1.60752e+06
-1.59677e+06
-1.58359e+06
-1.56347e+06
-1.54488e+06
-1.53649e+06
-1.55483e+06
-1.64254e+06
-1.5667e+06
-1.42512e+06
-1.41093e+06
-1.29125e+06
-1.14912e+06
-1.13786e+06
-1.10607e+06
-1.03151e+06
-910224
-831803
-795640
-795902
-795374
-784106
-797529
-835499
-757741
-573249
-499459
-444875
-381883
-332597
-332167
-352256
-315355
-257495
-263957
-202348
-37568.6
17316.2
16056.5
16078.4
39726.4
87694.4
75790.7
75572.1
111208
124666
126492
141777
146934
142246
135312
137502
130549
121844
113815
105955
99215.5
93004.5
86998.5
80470.2
74024.1
68674.1
63929
59836.7
56754.2
53043.1
48728
46589.2
43965.3
42894.8
42071.2
44217.8
44324.1
39352.8
36954.4
34879.8
29365.5
24435.9
21587.9
19894.5
19040.1
19769.1
20923
20451.2
18955.9
16784.5
13388.4
11760.1
10522.9
10737.3
7334.84
8831.82
13149.6
9152.37
3602.14
-1.62044e+06
-1.63302e+06
-1.62628e+06
-1.61835e+06
-1.61367e+06
-1.60609e+06
-1.59539e+06
-1.5825e+06
-1.56277e+06
-1.5449e+06
-1.53657e+06
-1.55731e+06
-1.64747e+06
-1.5637e+06
-1.43348e+06
-1.4197e+06
-1.28277e+06
-1.15718e+06
-1.13914e+06
-1.1144e+06
-1.03814e+06
-923046
-834492
-798438
-794988
-790992
-783282
-793470
-818252
-733484
-564826
-502767
-447345
-390129
-333600
-331500
-341954
-302505
-244315
-258879
-202481
-58002.4
1946.61
12885.2
18010.4
38291.8
78885.8
76779.8
76221
109462
124629
127641
144981
147561
142999
137288
139142
131686
122504
114266
106298
99401.1
93232.2
87100
80553.1
74409.3
69030
64054.5
60095.5
56863.5
52871.9
48367.6
45856.5
42994.9
41397.8
40989.4
44357.4
45086.3
40452
38209.8
35415
29623.3
23349.4
20506.6
19096.6
18490.2
19669.1
20999.2
20454.1
19015.4
17023.6
13854.8
12312.1
10771.4
10782.2
7129.95
9036.78
13405.4
9867.46
4306.19
-1.61871e+06
-1.63257e+06
-1.62531e+06
-1.61696e+06
-1.61235e+06
-1.60476e+06
-1.59419e+06
-1.58145e+06
-1.56219e+06
-1.54489e+06
-1.5375e+06
-1.55966e+06
-1.64795e+06
-1.56287e+06
-1.44346e+06
-1.42438e+06
-1.27398e+06
-1.16226e+06
-1.14119e+06
-1.1202e+06
-1.0416e+06
-935816
-843644
-799516
-793388
-789894
-783930
-789971
-801042
-712263
-553799
-503063
-452839
-397190
-337005
-327548
-330474
-298109
-245302
-262155
-204656
-75297.9
-15350.4
11973.7
17520.8
33379.9
69026.8
77670.9
78336.2
109152
124225
130802
147864
148244
143081
140603
140784
132781
123155
114732
106601
99587.2
93337.3
87219.1
80766.4
74722.3
69077
64138.8
60326.1
57028.7
52813.6
47959.6
45168.8
41939.3
40101.4
39913
45013.7
46268.2
41660.1
38868.3
35706
29376
22387
19458.4
18314.7
18006
19587.1
21040.2
20435.9
19109.3
17311.5
14221.6
12704.3
11012.8
10595.8
7222.18
9343.06
13747.3
10549.9
4905.22
-1.61695e+06
-1.63204e+06
-1.62444e+06
-1.61567e+06
-1.61116e+06
-1.60364e+06
-1.59312e+06
-1.58038e+06
-1.56166e+06
-1.54517e+06
-1.53894e+06
-1.56093e+06
-1.64365e+06
-1.56202e+06
-1.45455e+06
-1.42329e+06
-1.2637e+06
-1.16029e+06
-1.14108e+06
-1.12316e+06
-1.04854e+06
-943540
-852042
-803186
-791231
-790680
-788472
-787671
-783509
-694397
-546973
-502756
-461767
-404625
-337659
-318793
-322790
-301712
-253771
-265137
-209459
-85891.4
-26779.7
12847.3
19444.9
28743
59310.4
78270.1
80672
108542
123973
135045
149383
148990
143034
144166
142464
133793
123905
115189
106822
99736.3
93465.4
87325.2
81007.8
74808.4
68953.1
64403.6
60604.2
57167.1
52896
47673.8
44742.4
40640.4
39069.8
39293.4
46274.6
47749.4
43005.3
39141.1
35540.2
28727.3
21438.1
18461.1
17607.1
17604.1
19496.5
21069.5
20412.8
19213.9
17585.3
14627.7
13001.1
11185.4
10243.5
7529.48
9695.92
14097
11279
5348.4
-1.61523e+06
-1.63144e+06
-1.62368e+06
-1.61456e+06
-1.61005e+06
-1.60264e+06
-1.5921e+06
-1.57937e+06
-1.56137e+06
-1.54579e+06
-1.54051e+06
-1.5617e+06
-1.63462e+06
-1.55865e+06
-1.46734e+06
-1.42137e+06
-1.25198e+06
-1.15163e+06
-1.13694e+06
-1.12347e+06
-1.05756e+06
-950390
-858406
-806620
-790945
-792878
-794787
-787460
-768150
-680388
-543904
-504675
-474741
-413234
-339047
-314054
-320097
-300332
-256662
-257440
-205876
-96167.2
-29289.7
17830.5
19480.2
24339.5
49048.3
76851.3
82727.2
108220
123944
137676
149464
148966
144650
147524
144072
134863
124691
115681
106946
99841.8
93598.8
87498.2
81145.5
74858
68995.1
64495.4
60784.5
57375.6
52924.5
47528.1
44885.8
39548.7
38045.8
39139.6
47120.4
49023.3
44344.2
39345.7
34973.6
27800.5
20537
17563.6
16988.3
17260
19400.6
21096.1
20363.6
19297.5
17809.9
15111.1
13237.9
11204.6
9914.97
8036.54
10106.8
14475.5
12084.6
5659.28
-1.61372e+06
-1.63073e+06
-1.62299e+06
-1.61365e+06
-1.60906e+06
-1.60171e+06
-1.59124e+06
-1.57844e+06
-1.56143e+06
-1.54663e+06
-1.54193e+06
-1.56167e+06
-1.62277e+06
-1.55256e+06
-1.48156e+06
-1.42422e+06
-1.23856e+06
-1.13998e+06
-1.13003e+06
-1.12204e+06
-1.06569e+06
-954718
-862480
-809867
-792211
-796371
-801303
-788073
-755783
-671750
-546344
-507376
-490678
-425877
-344870
-313413
-316173
-295890
-257938
-244012
-195341
-100112
-30967.8
18496
16604.4
21157.1
40517.9
73823.1
84362.1
108011
124791
138346
148410
148384
147373
150591
145695
135812
125462
116201
107033
99901.5
93719.9
87688.5
81223.8
74923.5
69033.7
64468.6
60936.5
57655.1
53054.3
47565.9
45281.2
38866
36825.4
39092.1
47485.5
49978.7
45435.8
39245.7
34080.9
26798
19734.5
16854.1
16501.4
17021.4
19329.1
21092
20315.5
19299.6
18094.6
15593.1
13322
11297.3
9510.74
8691.13
10620.7
14859
12896.9
5835.98
-1.61254e+06
-1.62986e+06
-1.62237e+06
-1.61298e+06
-1.60815e+06
-1.6009e+06
-1.59065e+06
-1.57768e+06
-1.56137e+06
-1.54768e+06
-1.54314e+06
-1.56049e+06
-1.61088e+06
-1.55013e+06
-1.49516e+06
-1.42921e+06
-1.22472e+06
-1.12873e+06
-1.12251e+06
-1.12059e+06
-1.07122e+06
-955047
-863872
-812674
-794753
-800592
-806611
-787522
-745835
-669339
-556966
-509983
-505637
-440730
-353099
-316191
-312580
-291661
-257235
-235189
-188889
-101845
-32894.2
14725
12767.6
17371.9
34155.1
69565.6
85791.1
109181
125668
137842
147394
148531
151282
153176
147154
136847
126371
116700
107095
99818.9
93814.4
87884.2
81329
75078.9
69020.7
64325.7
60978.3
58021.2
53441.9
47825.8
45968.4
38737.3
35366.7
39031.4
47556.7
50525.9
46205.2
39133.4
32973.6
25948.5
19359.9
16278.7
16229.4
16913.1
19231.4
21053.9
20215.3
19264.4
18363.7
16047.6
13330.8
11423.2
9169.26
9431.88
11255.1
15308.4
13735.4
6005.69
-1.61171e+06
-1.62886e+06
-1.62184e+06
-1.61244e+06
-1.60731e+06
-1.60016e+06
-1.59018e+06
-1.57716e+06
-1.56161e+06
-1.54857e+06
-1.54382e+06
-1.55887e+06
-1.6001e+06
-1.55261e+06
-1.50612e+06
-1.43197e+06
-1.21219e+06
-1.12041e+06
-1.11589e+06
-1.11986e+06
-1.07503e+06
-953113
-862443
-815542
-799607
-806847
-811409
-786207
-736496
-669691
-573608
-515117
-516965
-456127
-361944
-319697
-310483
-290025
-261751
-236784
-183183
-99380.3
-34314.9
7593.92
9926.02
15048
30467.8
63857.6
85794.5
111168
126398
137916
148438
150038
155197
155528
148486
137784
127286
117235
107039
99599.8
93841.3
88150.3
81509.1
75350.5
69073.3
64070.5
60956.1
58484.9
54144.8
48352.4
46785.5
39228.7
34237.1
38826.4
47533
50812
46640.6
38933.1
32531.4
25814.4
19327.8
15883.6
16070.5
17030.1
19188.2
20976
20108.9
19140.5
18642.4
16401.6
13070.7
11461.2
9111.21
10267.7
11849.4
15850.2
14809
6249.71
-1.61118e+06
-1.62775e+06
-1.62144e+06
-1.61213e+06
-1.60663e+06
-1.59954e+06
-1.58978e+06
-1.57694e+06
-1.56182e+06
-1.5492e+06
-1.544e+06
-1.55706e+06
-1.59132e+06
-1.55514e+06
-1.51411e+06
-1.43066e+06
-1.20189e+06
-1.11898e+06
-1.11266e+06
-1.11875e+06
-1.07488e+06
-951780
-860020
-818506
-806875
-817487
-815147
-783637
-727670
-668061
-590777
-525720
-519772
-468308
-372602
-323753
-308847
-291214
-269786
-241428
-178682
-98354.4
-37593.5
1345.46
8333.17
13401.5
28530.2
59830.3
85598.8
112311
126783
139861
150264
151691
157846
157058
149492
138525
128124
117782
106952
99244.2
93750.8
88466.4
81838
75680
69127.3
63597.1
60896.4
59012.2
55071.5
49397.5
47650.8
40254.5
33714.7
38462.4
47470.5
51004.7
46780.9
38653
32373.8
26126
19562.6
15729.4
15859.8
17187.3
19266.9
20888.2
19991.3
19004.5
18850
16632.4
12766.8
11336.8
9463.39
11083.9
12506.3
16413.8
15947.2
6500.18
-1.61085e+06
-1.62655e+06
-1.62111e+06
-1.61203e+06
-1.60611e+06
-1.59906e+06
-1.58942e+06
-1.57676e+06
-1.56226e+06
-1.54969e+06
-1.54399e+06
-1.55498e+06
-1.58222e+06
-1.55383e+06
-1.51944e+06
-1.42591e+06
-1.19226e+06
-1.11536e+06
-1.10991e+06
-1.11767e+06
-1.07432e+06
-951659
-860262
-821629
-814353
-830290
-819255
-783253
-720634
-664839
-602317
-536256
-516259
-476878
-383893
-328070
-308031
-294929
-279164
-247074
-176023
-96915.4
-39702.1
-3552.95
7873.7
13601.8
27959
56883.8
85741.9
113094
125888
140445
151219
152915
159131
157880
149869
138976
128927
118486
106992
98539.1
93494.5
88900.5
82279.6
76095.7
69245.5
62929
60520
59287.1
56072.7
50812.5
48582
41525.3
33851
38487.1
47301.3
51102.8
46598
38162.8
32183.7
26460.4
20033.1
15685.2
15620.9
17320.3
19361.5
20808.2
19890.1
18889.1
18908.9
16763.3
12601.6
11165.6
10079.6
11803.3
13183.2
17028
17020.9
6752.69
-1.61067e+06
-1.62542e+06
-1.62086e+06
-1.61209e+06
-1.60578e+06
-1.59872e+06
-1.58915e+06
-1.57665e+06
-1.56259e+06
-1.55009e+06
-1.54411e+06
-1.55207e+06
-1.57222e+06
-1.54698e+06
-1.52114e+06
-1.41962e+06
-1.18486e+06
-1.11037e+06
-1.10763e+06
-1.11559e+06
-1.07304e+06
-950725
-862068
-826378
-823448
-837860
-827050
-786172
-717541
-661762
-608164
-539566
-513943
-479867
-391736
-332971
-308354
-301811
-290911
-252965
-173117
-94610.5
-40427.6
-7720.9
7252.69
14853.8
29393.3
55395.5
84887.1
111349
123649
140270
150882
153434
160253
158286
149485
139239
129868
119346
107120
97769
92915.9
89318.9
83017.6
76681.3
69498.7
62000.6
59773.5
59609.3
57103.9
52104.6
49441.2
42744.1
34375.9
38831.1
47060.3
50987.4
46170.8
37444.3
31919.9
26690.9
20669.6
15862.5
15374.8
17373.9
19475.8
20724.8
19805.9
18771.8
18912.2
16867.1
12600
11010.4
10816.4
12355
13736.9
17677.4
18134.2
7097.04
-1.61071e+06
-1.62432e+06
-1.62064e+06
-1.61221e+06
-1.60565e+06
-1.5985e+06
-1.58893e+06
-1.57657e+06
-1.56301e+06