/*--------------------------------*- C++ -*----------------------------------*\
| =========                 |                                                 |
| \\      /  F ield         | foam-extend: Open Source CFD                    |
|  \\    /   O peration     | Version:     5.0                                |
|   \\  /    A nd           | Web:         http://www.foam-extend.org         |
|    \\/     M anipulation  |                                                 |
\*---------------------------------------------------------------------------*/
FoamFile
{
    version     2.0;
    format      ascii;
    class       volScalarField;
    location    "0.08";
    object      pd;
}
// * * * * * * * * * * * * * * * * * * * * * * * * * * * * * * * * * * * * * //

dimensions      [1 -1 -2 0 0 0 0];

internalField   nonuniform List<scalar> 
4000
(
-1.62853e+06
-1.63076e+06
-1.62942e+06
-1.62686e+06
-1.62457e+06
-1.62147e+06
-1.6156e+06
-1.6049e+06
-1.59549e+06
-1.59055e+06
-1.58798e+06
-1.58458e+06
-1.57142e+06
-1.54797e+06
-1.4719e+06
-1.35201e+06
-1.24289e+06
-1.12826e+06
-1.01007e+06
-920253
-862717
-838078
-849468
-857943
-837241
-812371
-796068
-792683
-756751
-656587
-464922
-319369
-327979
-376429
-347302
-301265
-277193
-269451
-259238
-214561
-117586
-1375.37
56955.7
64753.3
61815.6
60990.2
64538.1
73836.9
92254.9
101779
104894
111653
118654
122853
124976
125978
121214
115581
111988
107242
101377
94920.8
88139.7
81232
75435
68167
63006
60423.9
57078.4
54015.5
51555.7
50078.7
49025.5
47434.5
45656.4
43448.5
41051.2
38267.5
35592.4
33858.5
33517
34199.4
34580.8
34409.1
32112.5
28560.2
26502.9
24350.4
21722.5
19112
15062.3
11207.9
8333.42
6488.58
6279.71
6498.52
6462.6
5625.56
4001.05
1963.91
-1.62831e+06
-1.63055e+06
-1.62907e+06
-1.62643e+06
-1.62406e+06
-1.62084e+06
-1.61512e+06
-1.60501e+06
-1.59537e+06
-1.59101e+06
-1.58778e+06
-1.58237e+06
-1.57047e+06
-1.54861e+06
-1.47331e+06
-1.35323e+06
-1.24214e+06
-1.12784e+06
-1.01005e+06
-920830
-865476
-843790
-853761
-861654
-839700
-811936
-797014
-789843
-757650
-661546
-462822
-314099
-330170
-375761
-341277
-294992
-275310
-269892
-260076
-217189
-116253
1564.56
60311.8
68860.3
62985
63260.2
65914.5
74522.6
92354.6
100930
104333
110768
118372
122744
124939
125596
120511
115315
111723
106869
101057
94463.3
88084.5
81032.1
75338.5
67949.8
62806.6
60436.9
57012.6
53936.1
51478.8
49991.9
48942.7
47314.6
45534.6
43317.8
40963.5
38192.4
35549.1
33845.2
33451
34091.1
34422.5
34329.2
32028.7
28523.3
26546.5
24435.3
21852.8
19213.8
15075.7
11252.4
8465.37
6548.33
6325.24
6529.27
6478.42
5653.3
3976.15
1902.24
-1.62806e+06
-1.63048e+06
-1.62885e+06
-1.62605e+06
-1.62362e+06
-1.62036e+06
-1.61443e+06
-1.60443e+06
-1.59433e+06
-1.58984e+06
-1.58736e+06
-1.58132e+06
-1.57302e+06
-1.55671e+06
-1.47695e+06
-1.35326e+06
-1.24275e+06
-1.12752e+06
-1.00873e+06
-919667
-865708
-845495
-855728
-864700
-841936
-809441
-795027
-790017
-765654
-668916
-460382
-310981
-331877
-377160
-336282
-292608
-273466
-269944
-262338
-220757
-116191
10215.3
68588.2
73977
64878.5
64784.7
67893.9
76181.8
92012.9
100446
104496
110939
118744
123099
125056
125507
120116
115308
111494
106609
100806
94031.6
87756.5
81118.2
75448.7
67682
62554.8
60374.1
57083.7
53931.9
51384.9
49961.9
48824.6
47214.7
45484.6
43214
40902.6
38111.3
35474.8
33788
33361.5
34024.9
34396.3
34365.6
31980.7
28479.4
26573.4
24507.9
22006
19324.1
15061
11205.4
8435.22
6498
6384.15
6644.22
6449.98
5734.24
3964.86
1779.76
-1.62781e+06
-1.63047e+06
-1.62874e+06
-1.6257e+06
-1.62327e+06
-1.61996e+06
-1.61382e+06
-1.60379e+06
-1.5935e+06
-1.58799e+06
-1.58588e+06
-1.57978e+06
-1.579e+06
-1.56668e+06
-1.48038e+06
-1.35136e+06
-1.24353e+06
-1.12718e+06
-1.00613e+06
-917874
-864963
-845007
-858072
-867318
-842363
-805165
-791297
-791509
-776477
-681411
-462560
-311903
-332211
-380960
-335179
-292004
-271523
-269590
-264981
-229038
-119493
19874.4
75264.6
79559.4
66549.7
65181.9
70215.4
79373.4
91706.9
100030
104853
112091
119656
123632
125348
125423
120258
115457
111331
106426
100663
93744
87494.8
81275.9
75342.9
67680.2
62418.1
60405.5
57249.9
53936.6
51385.7
49867.9
48738.1
47147.4
45448.1
43172.6
40804.1
38013.5
35372.6
33684.9
33326.8
33999.2
34448.2
34462.2
31910.4
28418.7
26574.6
24538.3
22178.7
19398.3
15015.3
11110.7
8297.42
6464.94
6397.25
6759.14
6587.19
5832.86
3936.13
1711.5
-1.62755e+06
-1.63055e+06
-1.6287e+06
-1.62546e+06
-1.62304e+06
-1.61974e+06
-1.6134e+06
-1.60318e+06
-1.59252e+06
-1.58612e+06
-1.58347e+06
-1.57664e+06
-1.58523e+06
-1.57345e+06
-1.48276e+06
-1.34931e+06
-1.24471e+06
-1.12716e+06
-1.00352e+06
-916091
-864486
-845328
-861088
-871712
-841992
-799428
-782465
-790345
-790350
-702878
-473961
-312498
-327007
-380413
-338813
-292873
-268607
-269328
-270527
-242392
-126315
25057.4
76080.2
81734.4
65524
63391.8
71814.7
83305.5
91359.7
98532
105756
113666
120974
124331
125801
125718
120500
115668
111344
106312
100605
93808.5
87445.5
81215.6
74963.3
67919.1
62625.8
60395.1
57264.5
54129.9
51523.8
49700
48657.9
47151.6
45383.5
43161
40662.1
37876.4
35269.2
33546.8
33356.8
34030.9
34575.2
34594.7
31815.8
28301.1
26501.1
24581.5
22237.9
19468.4
14963.6
11056.8
8124.62
6329.38
6442.2
6920.04
6806.31
5949.52
3967.09
1531.48
-1.62729e+06
-1.6307e+06
-1.62874e+06
-1.62528e+06
-1.62294e+06
-1.61966e+06
-1.61298e+06
-1.60295e+06
-1.59187e+06
-1.58445e+06
-1.57941e+06
-1.57331e+06
-1.59148e+06
-1.57776e+06
-1.48217e+06
-1.34747e+06
-1.24695e+06
-1.12647e+06
-1.001e+06
-917342
-866531
-850537
-864449
-871740
-836110
-791218
-768876
-788040
-809242
-734465
-479498
-301750
-316823
-374900
-346942
-296009
-264985
-266752
-275640
-259158
-137172
25968.2
74717.3
79889.6
62496.2
59974.8
72896.1
86201.4
89425.3
96733.8
106889
115409
122560
125316
126480
126292
120822
115976
111465
106303
100673
93968.4
87489.3
81127.1
75073.8
68032.2
62817.6
60451.8
57282.1
54380.5
51611.6
49591.4
48590.7
47127.6
45379
43149.1
40574.4
37755.1
35153.3
33407.1
33400
34117.9
34738.2
34743.3
31777.8
28104.8
26444.1
24543.7
22295.4
19510.3
15009.3
10948.6
7961.41
6140.1
6507.14
7144.53
7091.65
6170.5
3979.9
1433.38
-1.62706e+06
-1.63091e+06
-1.62885e+06
-1.62525e+06
-1.623e+06
-1.6197e+06
-1.61278e+06
-1.60282e+06
-1.59122e+06
-1.58229e+06
-1.57518e+06
-1.57137e+06
-1.59422e+06
-1.58049e+06
-1.47946e+06
-1.34662e+06
-1.25078e+06
-1.1262e+06
-1.00237e+06
-920503
-876680
-859946
-868658
-866098
-823617
-774877
-745375
-781879
-837219
-778694
-475148
-281762
-298568
-367578
-362366
-296088
-256545
-265365
-281530
-275166
-146457
26634.4
72648.2
74336.9
62072.1
54255.4
72864.2
88786.6
86589.5
95653.1
107983
117213
124128
126536
127369
126527
121477
116474
111666
106455
100861
94247.6
87605.9
81207.9
75192.3
68275.1
63088.6
60475
57412.6
54573.3
51605.4
49577.1
48555.4
47143.1
45404.3
43161.5
40502.7
37639.2
35043.7
33279
33473.8
34249
34911.1
34848.9
31698.7
27911
26256.1
24536.8
22431.8
19607.3
15076.8
10772.1
7671.58
6101.3
6621.21
7414.75
7419.24
6464.9
3993.18
1182.09
-1.62687e+06
-1.63116e+06
-1.62905e+06
-1.62533e+06
-1.62323e+06
-1.61991e+06
-1.61267e+06
-1.60234e+06
-1.5904e+06
-1.57989e+06
-1.57048e+06
-1.57062e+06
-1.59272e+06
-1.58337e+06
-1.47549e+06
-1.34702e+06
-1.25676e+06
-1.13026e+06
-1.01024e+06
-924122
-891843
-870115
-870249
-853082
-809918
-761261
-723422
-780960
-877484
-823558
-472933
-263101
-279159
-370640
-378139
-298793
-250253
-268745
-286651
-288884
-152122
27948.9
69790.4
67377.1
62395.9
45537.4
73581.6
91299.3
84212.8
95388.7
109166
119263
125255
127673
128677
126956
122236
117011
111959
106911
100865
94603.6
87875.4
81405.5
75423.4
68564.8
63406.4
60440.1
57518
54636.7
51626.1
49676.3
48589.5
47119.6
45477
43185.7
40459.1
37567.3
34938.3
33239.8
33510.5
34308.3
34923.6
34888.2
31670.8
27566.5
25999.2
24548.4
22739.4
19911.8
15112.5
10755.4
7503.99
5992
6746.75
7692.76
7803.14
6828.4
3882.36
883.773
-1.62678e+06
-1.63144e+06
-1.6293e+06
-1.62555e+06
-1.62365e+06
-1.62033e+06
-1.61259e+06
-1.60157e+06
-1.58929e+06
-1.57682e+06
-1.56576e+06
-1.57029e+06
-1.58866e+06
-1.58787e+06
-1.47255e+06
-1.34932e+06
-1.26165e+06
-1.13556e+06
-1.01666e+06
-938708
-904878
-876506
-865254
-840987
-801952
-750253
-704798
-782011
-907582
-852054
-478799
-272941
-275188
-379703
-380816
-304135
-256435
-275036
-294734
-300224
-154732
30089.9
67430.6
60799.6
58436.1
34441.4
76141.6
94296.9
81730.9
96356.1
111204
120875
126350
129416
130071
127615
122919
117604
112304
107053
101135
95091.2
88249.4
81654.8
75745.3
69104.8
63720.9
60257.5
57475.8
54721
51753.2
49854.7
48672.9
47150.6
45453.4
43233.2
40471.1
37504.4
34867.6
33171.8
33533.5
34321.6
34819.3
34793.1
31508.8
27233.5
25635.2
24648.4
23032.7
20086.6
15342.4
10947.5
7388.72
6068.26
6957.85
8039.53
8226.54
7238.56
3660.27
492.002
-1.62679e+06
-1.63178e+06
-1.62964e+06
-1.62594e+06
-1.62401e+06
-1.62076e+06
-1.61255e+06
-1.6009e+06
-1.58757e+06
-1.5734e+06
-1.56168e+06
-1.56872e+06
-1.58477e+06
-1.59209e+06
-1.47412e+06
-1.3562e+06
-1.26778e+06
-1.14362e+06
-1.01738e+06
-956487
-920446
-883250
-855853
-827678
-793262
-741998
-691271
-770635
-916783
-884420
-464965
-288971
-289917
-384887
-377082
-303458
-273692
-280657
-301534
-306494
-158416
33413.7
64103.8
55294.5
49497.6
26328.7
78115.3
96871.6
79663.8
99552.7
113329
121321
127782
131387
131555
128490
123640
118399
112736
107164
101459
95611.5
88611.9
81971
76150.3
69696.6
64013.1
60112.5
57434.6
54883.4
51903.6
50050.7
48808.1
47176.1
45471.5
43336.8
40525.6
37486
34798.1
33202.3
33545.2
34243.9
34596.7
34395.5
31175.3
26838
25352
24674.3
23038.4
20150.1
15604.4
11348.5
7556.73
6212
7205.58
8411.7
8621.74
7615.56
3439.27
166.105
-1.62688e+06
-1.63214e+06
-1.63008e+06
-1.62641e+06
-1.62451e+06
-1.62099e+06
-1.61237e+06
-1.59981e+06
-1.58573e+06
-1.57031e+06
-1.55902e+06
-1.56725e+06
-1.58168e+06
-1.59813e+06
-1.47477e+06
-1.36238e+06
-1.2685e+06
-1.15174e+06
-1.03125e+06
-967984
-931521
-889531
-847169
-814917
-788846
-740258
-690302
-758567
-909423
-906949
-464452
-293837
-306133
-388654
-377147
-300718
-285617
-283975
-302660
-309468
-166929
35228.8
60415.9
51895.3
39250.7
24641.6
76611.7
98893.8
77357.8
103645
113461
121932
129397
133270
133054
129583
124482
119256
113246
107294
101813
96181.8
88966.8
82261.1
76680.4
70288.8
64308.3
59979.1
57461.2
55045.3
52058.1
50271.8
48974.2
47198.6
45547.1
43482.3
40649.5
37500.2
34763.5
33257.7
33507.8
34017.8
34141.1
33677.4
30618.2
26318.6
24877.6
24399.1
23032.6
20314.6
15699.5
11627.7
7827.11
6531.62
7572.51
8724.6
8943.68
7991.11
3252.72
-208.077
-1.62704e+06
-1.63254e+06
-1.63053e+06
-1.62686e+06
-1.62487e+06
-1.62097e+06
-1.61173e+06
-1.59858e+06
-1.58392e+06
-1.56726e+06
-1.55695e+06
-1.56674e+06
-1.57949e+06
-1.60678e+06
-1.47131e+06
-1.36429e+06
-1.27008e+06
-1.15981e+06
-1.04948e+06
-985368
-943338
-895425
-843822
-808851
-790774
-750926
-698959
-759624
-899948
-904330
-471992
-313541
-325292
-397930
-383526
-296758
-290067
-288408
-304196
-314819
-183294
37376.1
58037.5
49095.7
34409.4
25252.1
74857.5
97660
75420
110312
113186
122323
129877
134833
134562
130343
125518
120179
113884
107430
102207
96817.3
89346.8
82465.3
77204.2
70960.5
64428.3
60033.2
57717.4
55086.9
52160.4
50485.6
49001.4
47219.2
45684.7
43688.1
40835.3
37529.7
34720.6
33240.9
33392.4
33628.6
33461.5
32757.9
29727.5
25669.8
24364.1
24159
23069.2
20311.6
15739.7
11913.9
8114.11
6867.55
8014.9
8973.15
9225.3
8363.75
3139.58
-475.592
-1.6272e+06
-1.63298e+06
-1.63086e+06
-1.62732e+06
-1.62516e+06
-1.62068e+06
-1.61078e+06
-1.59719e+06
-1.58197e+06
-1.56439e+06
-1.55449e+06
-1.56561e+06
-1.57826e+06
-1.61285e+06
-1.46416e+06
-1.36359e+06
-1.2785e+06
-1.1708e+06
-1.05898e+06
-999627
-959479
-901432
-845475
-812212
-795499
-763368
-714598
-766403
-900375
-911245
-483499
-347326
-351356
-394275
-378820
-292785
-294908
-292911
-311865
-322077
-200826
39546
57348.4
47925.8
34746.5
21322.1
74653.6
94069.1
75686.9
116875
113597
120854
129898
136261
135757
131064
126670
121254
114615
107623
102594
97134.7
89939.1
83034.6
77473.4
71412.5
64743.8
60377.3
57915.2
55090.5
52324.4
50595.3
48954.9
47272.9
45891.4
43907.4
41080.9
37614
34702.7
33110.5
33194.1
33131.2
32726.6
31831.2
28882.8
24957.7
24077.5
23914.9
22917.2
20308.7
15628.6
12155.6
8467.71
7200.84
8469.55
9169.11
9409.57
8755.32
3198.31
-740.131
-1.62734e+06
-1.63346e+06
-1.63106e+06
-1.62758e+06
-1.62521e+06
-1.62026e+06
-1.60958e+06
-1.59557e+06
-1.57975e+06
-1.56156e+06
-1.55219e+06
-1.56162e+06
-1.58034e+06
-1.61781e+06
-1.45623e+06
-1.35528e+06
-1.29595e+06
-1.18215e+06
-1.06798e+06
-1.01336e+06
-975686
-910860
-845815
-812785
-803601
-774171
-725734
-769210
-897851
-927282
-498039
-369032
-367888
-372142
-362234
-292995
-301847
-302954
-331608
-327462
-202684
46223.1
58518.4
45234.9
32564.3
18380.8
78060.6
89985.4
79133.8
121052
113261
120671
129926
137229
136855
131774
127810
122402
115151
108101
102989
97414.1
90502.5
83698
77776.4
71818.9
65272.5
60591.6
58090.7
55252.4
52405.1
50579.2
48957
47354.3
46081.8
44171.5
41349.5
37756
34634.3
32961.6
32919.6
32535.2
31921.1
31031.1
27964.6
24295.8
23550.4
23468.2
22698.4
20258.5
15485.2
12264
8806.66
7580.93
8910.82
9241.8
9436.17
9195.63
3382.85
-962.317
-1.6274e+06
-1.6339e+06
-1.63128e+06
-1.62762e+06
-1.62488e+06
-1.61948e+06
-1.60846e+06
-1.59382e+06
-1.57696e+06
-1.55895e+06
-1.54972e+06
-1.55695e+06
-1.58624e+06
-1.62291e+06
-1.44457e+06
-1.35099e+06
-1.32363e+06
-1.18709e+06
-1.07284e+06
-1.0297e+06
-991359
-914789
-846685
-811646
-803633
-779065
-737202
-773924
-894112
-940519
-514433
-388605
-360491
-355882
-352440
-295746
-310789
-314088
-348857
-334615
-184069
57819.9
59400.4
40511.4
27482.3
20487.4
84926.3
86295.3
85414.2
123830
113265
120976
129516
138072
137495
132586
128821
123198
115904
108769
103419
97700
90714.8
84235.7
78352.2
72352.8
65606.9
60844.1
58346.2
55334.6
52548.7
50594.6
48930.6
47449
46262.5
44445.6
41629.2
37937.8
34579.1
32644.6
32629
31873.4
31158.2
30213.5
26715.4
23426.2
22756.6
22894.7
22416.3
20154
15440
12294
9092.62
7923.12
9325.16
9273.49
9387.86
9612.96
3681.97
-1029.98
-1.6274e+06
-1.63422e+06
-1.63133e+06
-1.62744e+06
-1.62433e+06
-1.61821e+06
-1.6071e+06
-1.59257e+06
-1.57432e+06
-1.55607e+06
-1.54734e+06
-1.55278e+06
-1.59303e+06
-1.62511e+06
-1.43636e+06
-1.35259e+06
-1.34347e+06
-1.1887e+06
-1.0771e+06
-1.0443e+06
-1.00366e+06
-918553
-839528
-806667
-800663
-783445
-751576
-783323
-889414
-943153
-513632
-408459
-355539
-350111
-351141
-297218
-321708
-324088
-351997
-346174
-155794
59801.9
58029.6
32199.3
21935
26102
93201.9
83165.4
92283.7
125707
114375
121475
128943
138915
137890
133162
129945
124310
116479
109436
103924
97755.7
90978.3
85000.8
78809.8
72649.2
65988.1
61156.7
58639.8
55561.1
52561.8
50617.8
48941.7
47469.7
46444.1
44761.6
41970.2
38173.1
34544.3
32316.7
32165.8
31248.1
30476.4
29348.8
25408.4
22428.8
22018.9
22399.6
22093.7
19967.9
15496.5
12257.7
9377.82
8249.61
9730.51
9166.91
9291.84
10150.4
4181.75
-931.266
-1.62727e+06
-1.63437e+06
-1.63122e+06
-1.62693e+06
-1.62335e+06
-1.61701e+06
-1.60594e+06
-1.59106e+06
-1.5718e+06
-1.55337e+06
-1.54589e+06
-1.54838e+06
-1.60053e+06
-1.6236e+06
-1.43238e+06
-1.35704e+06
-1.34945e+06
-1.18504e+06
-1.08316e+06
-1.06278e+06
-1.00408e+06
-922430
-830153
-801583
-799292
-790774
-769633
-797045
-882344
-926702
-501246
-429819
-381882
-348596
-352981
-302545
-332001
-332976
-347069
-334128
-136505
49134.9
55459.5
23847.5
19197.6
32442.7
98478.5
80273.5
94745.3
127458
116415
122223
129189
140132
138239
133454
130848
125281
117279
110099
104222
97948.5
91472.1
85543
79164.3
72886.6
66148.2
61593.7
58953.6
55804.5
52645
50542.3
48868.3
47519.5
46624.6
45040.2
42475.4
38603.7
34578.6
32115.9
31483.7
30504
29857.1
28404.6
24276.8
21627.7
21526.3
21992.7
21692.8
19691.8
15675.3
12149.4
9563.46
8530.35
10088.3
9029.59
9124.82
10623.4
4749.47
-660.658
-1.62699e+06
-1.63447e+06
-1.63094e+06
-1.6261e+06
-1.62227e+06
-1.61567e+06
-1.60446e+06
-1.58955e+06
-1.56957e+06
-1.55043e+06
-1.5453e+06
-1.5446e+06
-1.60737e+06
-1.61808e+06
-1.43275e+06
-1.3619e+06
-1.34442e+06
-1.17618e+06
-1.08893e+06
-1.08166e+06
-1.00412e+06
-920823
-827150
-794516
-795820
-797450
-785603
-807900
-876744
-899480
-515925
-453409
-419123
-348761
-348333
-312157
-342126
-328792
-337782
-298413
-131387
35860.1
54254.1
23179
16190.6
38602.5
101224
77876.9
92608.5
128149
117899
123221
130096
141116
138478
133754
131539
125947
118045
110736
104551
98199.5
91908.9
85958.3
79510.3
73024
66393.6
62220.4
59334.5
55866.1
52771.4
50393.2
48740.7
47523.3
46675
45230.6
43099.4
39351.9
34840.6
32060.7
31092.2
29818.3
29152.8
27321.2
23377.4
21085
21081
21533.1
21265.5
19445.7
15852
12089.8
9744.88
8799.49
10315.6
8812.05
8976.4
11169.9
5453.29
-247.488
-1.62647e+06
-1.63446e+06
-1.63051e+06
-1.62516e+06
-1.62084e+06
-1.614e+06
-1.60286e+06
-1.58838e+06
-1.56792e+06
-1.54717e+06
-1.54402e+06
-1.54335e+06
-1.61332e+06
-1.6091e+06
-1.43224e+06
-1.36763e+06
-1.33134e+06
-1.16652e+06
-1.09864e+06
-1.08691e+06
-1.01325e+06
-919708
-826843
-789916
-793482
-800207
-789313
-806640
-871137
-867366
-543579
-468945
-433637
-349713
-341163
-322481
-355107
-322341
-322525
-275051
-143175
25501.5
56248.8
25049.7
12221.8
44084.5
102570
75737.9
86739.4
127008
118927
124075
131566
142149
138759
133952
132387
126622
118757
111331
104944
98455.2
92188.6
86420.9
79648.2
73276.6
66915.7
62664.2
59491
56040.2
52897.7
50189.7
48503.1
47336.4
46628.6
45202.9
43635.3
40253
35410.5
32247.9
31102.8
29392.4
28425.3
26101.5
22761.3
20610.2
20605.5
21161.4
20935
19265.7
16017
12143.3
9903.34
9114.2
10504.3
8558.25
8882.26
11741.2
6176.68
310.255
-1.62567e+06
-1.63435e+06
-1.62995e+06
-1.62397e+06
-1.61947e+06
-1.61241e+06
-1.6013e+06
-1.58703e+06
-1.56642e+06
-1.54464e+06
-1.54224e+06
-1.54488e+06
-1.61972e+06
-1.59637e+06
-1.42859e+06
-1.37579e+06
-1.31545e+06
-1.15748e+06
-1.11631e+06
-1.08655e+06
-1.02298e+06
-917270
-827743
-785345
-793027
-800735
-788774
-802377
-867908
-836343
-561112
-477148
-431825
-352220
-336247
-331410
-361044
-319220
-314260
-280652
-170921
16141.8
55694.7
24527.3
7858.51
46910.4
102387
74119.6
80911.5
125120
119553
124520
133655
143346
139412
134230
133232
127471
119675
111960
105181
98648.4
92436.5
86571.3
79886
73584.7
67440.8
62987.6
59543.4
56254.6
52999
49915.2
48131.9
47010.5
46251.8
44732.4
43874.8
41163.7
36138.6
32693.6
31699.7
29042.7
27673.3
24824.2
22170.9
20216
20199.3
20945.2
20691.7
19092.1
16202.9
12297.4
10123.8
9483.19
10565.6
8324.6
8849.23
12260.8
6903.24
993.903
-1.62465e+06
-1.63414e+06
-1.62917e+06
-1.62272e+06
-1.61804e+06
-1.61074e+06
-1.59976e+06
-1.58587e+06
-1.56514e+06
-1.54362e+06
-1.54019e+06
-1.54849e+06
-1.62795e+06
-1.58404e+06
-1.42187e+06
-1.3869e+06
-1.30551e+06
-1.14909e+06
-1.132e+06
-1.08871e+06
-1.02336e+06
-907822
-830257
-786044
-795920
-800684
-786884
-799345
-862845
-811751
-570126
-484871
-433023
-359940
-335242
-334993
-360737
-315520
-295950
-285846
-194695
-540.106
44827.3
21810
6454.33
46814.1
99761.1
73814.3
78015.5
120866
120842
125146
136087
144797
140259
134657
134495
128373
120371
112618
105399
98809.1
92681
86590.6
80135.7
73845.8
67856.6
63295.2
59618.3
56466.1
53096.3
49558.5
47739.4
46263
45473.4
43809.7
43919
42176
37081.1
33724.6
32731.6
28833.3
26779.7
23655.7
21485.4
19884.5
19950.9
20878
20546.4
18955.4
16393.6
12523.1
10551.5
9850.82
10597
8006.16
8761.8
12648.1
7588.75
1794.47
-1.62345e+06
-1.63383e+06
-1.62825e+06
-1.6213e+06
-1.61656e+06
-1.6091e+06
-1.59823e+06
-1.58472e+06
-1.56422e+06
-1.54435e+06
-1.5379e+06
-1.55197e+06
-1.63582e+06
-1.57429e+06
-1.42088e+06
-1.39935e+06
-1.29811e+06
-1.14591e+06
-1.13693e+06
-1.09621e+06
-1.0252e+06
-903776
-831519
-791695
-797117
-798519
-786161
-799513
-850105
-785630
-575139
-493969
-440559
-371527
-334746
-333456
-357227
-316456
-275655
-276369
-201710
-18411.1
29831
18025.9
10044
43735.4
94858.1
74717.8
76417.7
115309
123316
125881
138824
145939
141240
134929
135853
129380
121180
113328
105623
98994.4
92851.6
86773.2
80399.2
73872.8
68196.1
63580.8
59701.4
56689.4
53189.9
49125.3
47186.5
45213.3
44301.3
42927
44008.1
43338.7
38190.9
35332.9
33957.8
28969.1
25620.1
22600.7
20728.8
19509
19852.4
20884.1
20484.8
18933.9
16534.9
12912
11148.8
10214.2
10674.8
7610.81
8746.96
12980
8343.24
2685.62
-1.622e+06
-1.63345e+06
-1.62729e+06
-1.61986e+06
-1.61512e+06
-1.60752e+06
-1.59677e+06
-1.58358e+06
-1.56347e+06
-1.54488e+06
-1.53649e+06
-1.55483e+06
-1.64254e+06
-1.5667e+06
-1.42512e+06
-1.41093e+06
-1.29125e+06
-1.14912e+06
-1.13786e+06
-1.10607e+06
-1.03151e+06
-910223
-831802
-795639
-795901
-795373
-784106
-797528
-835499
-757741
-573248
-499459
-444875
-381882
-332596
-332167
-352256
-315354
-257494
-263957
-202347
-37568.2
17316.7
16057
16078.8
39726.9
87694.9
75791.2
75572.6
111209
124667
126492
141778
146935
142246
135312
137502
130550
121844
113816
105956
99216
93005
86999
80470.7
74024.5
68674.6
63929.4
59837.2
56754.7
53043.6
48728.5
46589.7
43965.8
42895.2
42071.7
44218.3
44324.6
39353.2
36954.9
34880.2
29366
24436.3
21588.4
19895
19040.6
19769.6
20923.5
20451.7
18956.4
16785
13388.8
11760.6
10523.4
10737.8
7335.33
8832.31
13150.1
9152.86
3602.63
-1.62044e+06
-1.63302e+06
-1.62628e+06
-1.61835e+06
-1.61367e+06
-1.60609e+06
-1.59539e+06
-1.5825e+06
-1.56277e+06
-1.5449e+06
-1.53657e+06
-1.55731e+06
-1.64747e+06
-1.5637e+06
-1.43348e+06
-1.4197e+06
-1.28277e+06
-1.15718e+06
-1.13914e+06
-1.1144e+06
-1.03814e+06
-923045
-834491
-798438
-794988
-790992
-783282
-793469
-818252
-733483
-564825
-502766
-447345
-390129
-333600
-331500
-341953
-302505
-244314
-258878
-202481
-58001.9
1947.1
12885.7
18010.9
38292.3
78886.3
76780.3
76221.5
109462
124629
127641
144982
147562
142999
137288
139143
131687
122504
114266
106299
99401.6
93232.7
87100.5
80553.6
74409.7
69030.5
64055
60096
56864
52872.4
48368.1
45857
42995.4
41398.3
40989.9
44357.9
45086.8
40452.4
38210.3
35415.4
29623.8
23349.9
20507.1
19097.1
18490.7
19669.6
20999.7
20454.6
19015.9
17024.1
13855.3
12312.6
10771.8
10782.7
7130.44
9037.27
13405.9
9867.95
4306.68
-1.61871e+06
-1.63257e+06
-1.62531e+06
-1.61696e+06
-1.61235e+06
-1.60476e+06
-1.59419e+06
-1.58145e+06
-1.56219e+06
-1.54489e+06
-1.5375e+06
-1.55966e+06
-1.64795e+06
-1.56287e+06
-1.44346e+06
-1.42438e+06
-1.27398e+06
-1.16226e+06
-1.14119e+06
-1.1202e+06
-1.0416e+06
-935815
-843644
-799515
-793387
-789894
-783929
-789971
-801041
-712263
-553799
-503063
-452839
-397189
-337005
-327548
-330474
-298108
-245301
-262155
-204655
-75297.4
-15350
11974.2
17521.3
33380.4
69027.3
77671.4
78336.7
109153
124225
130803
147864
148245
143082
140604
140784
132782
123155
114733
106602
99587.7
93337.8
87219.5
80766.9
74722.8
69077.5
64139.3
60326.6
57029.2
52814.1
47960.1
45169.3
41939.8
40101.9
39913.5
45014.2
46268.7
41660.6
38868.8
35706.4
29376.5
22387.5
19458.9
18315.2
18006.5
19587.6
21040.7
20436.3
19109.8
17312
14222.1
12704.8
11013.2
10596.2
7222.67
9343.55
13747.8
10550.4
4905.71
-1.61695e+06
-1.63204e+06
-1.62444e+06
-1.61567e+06
-1.61116e+06
-1.60363e+06
-1.59312e+06
-1.58038e+06
-1.56166e+06
-1.54517e+06
-1.53894e+06
-1.56093e+06
-1.64365e+06
-1.56202e+06
-1.45455e+06
-1.42329e+06
-1.2637e+06
-1.16029e+06
-1.14108e+06
-1.12316e+06
-1.04854e+06
-943539
-852042
-803185
-791231
-790680
-788471
-787671
-783509
-694396
-546973
-502756
-461767
-404624
-337658
-318793
-322789
-301712
-253770
-265136
-209459
-85890.9
-26779.2
12847.7
19445.4
28743.5
59310.9
78270.6
80672.5
108542
123973
135045
149383
148990
143034
144166
142464
133793
123905
115190
106822
99736.7
93465.9
87325.7
81008.2
74808.9
68953.6
64404.1
60604.7
57167.6
52896.5
47674.3
44742.9
40640.9
39070.3
39293.9
46275.1
47749.8
43005.8
39141.5
35540.7
28727.8
21438.6
18461.6
17607.6
17604.6
19497
21070
20413.3
19214.3
17585.8
14628.2
13001.6
11185.9
10244
7529.97
9696.41
14097.5
11279.5
5348.89
-1.61523e+06
-1.63144e+06
-1.62368e+06
-1.61456e+06
-1.61005e+06
-1.60264e+06
-1.5921e+06
-1.57937e+06
-1.56137e+06
-1.54579e+06
-1.54051e+06
-1.5617e+06
-1.63462e+06
-1.55865e+06
-1.46734e+06
-1.42137e+06
-1.25198e+06
-1.15163e+06
-1.13694e+06
-1.12347e+06
-1.05756e+06
-950390
-858405
-806620
-790944
-792878
-794786
-787459
-768149
-680388
-543904
-504674
-474741
-413234
-339047
-314053
-320096
-300332
-256661
-257440
-205876
-96166.7
-29289.2
17831
19480.7
24340
49048.8
76851.8
82727.7
108221
123944
137677
149464
148966
144650
147524
144073
134864
124691
115681
106947
99842.3
93599.3
87498.7
81146
74858.5
68995.6
64495.9
60785
57376.1
52925
47528.5
44886.3
39549.2
38046.3
39140.1
47120.8
49023.7
44344.7
39346.2
34974.1
27801
20537.5
17564.1
16988.8
17260.5
19401.1
21096.6
20364.1
19298
17810.4
15111.6
13238.4
11205.1
9915.46
8037.03
10107.3
14476
12085.1
5659.77
-1.61372e+06
-1.63073e+06
-1.62299e+06
-1.61365e+06
-1.60906e+06
-1.60171e+06
-1.59124e+06
-1.57844e+06
-1.56143e+06
-1.54663e+06
-1.54193e+06
-1.56166e+06
-1.62277e+06
-1.55256e+06
-1.48156e+06
-1.42422e+06
-1.23856e+06
-1.13998e+06
-1.13003e+06
-1.12204e+06
-1.06569e+06
-954717
-862480
-809867
-792210
-796370
-801303
-788072
-755783
-671749
-546343
-507376
-490677
-425877
-344869
-313412
-316172
-295889
-257937
-244011
-195341
-100112
-30967.3
18496.5
16604.9
21157.6
40518.4
73823.6
84362.6
108012
124791
138347
148410
148384
147373
150592
145695
135813
125463
116202
107033
99902
93720.4
87689
81224.3
74924
69034.2
64469.1
60937
57655.6
53054.8
47566.4
45281.6
38866.5
36825.9
39092.6
47486
49979.2
45436.3
39246.2
34081.4
26798.5
19735
16854.6
16501.9
17021.9
19329.6
21092.5
20316
19300.1
18095.1
15593.6
13322.5
11297.8
9511.23
8691.62
10621.2
14859.5
12897.4
5836.47
-1.61254e+06
-1.62986e+06
-1.62237e+06
-1.61298e+06
-1.60815e+06
-1.6009e+06
-1.59065e+06
-1.57768e+06
-1.56137e+06
-1.54768e+06
-1.54314e+06
-1.56049e+06
-1.61088e+06
-1.55013e+06
-1.49516e+06
-1.42921e+06
-1.22472e+06
-1.12873e+06
-1.12251e+06
-1.12059e+06
-1.07122e+06
-955047
-863872
-812673
-794752
-800591
-806611
-787522
-745834
-669338
-556966
-509982
-505636
-440730
-353099
-316190
-312580
-291661
-257234
-235189
-188888
-101845
-32893.7
14725.5
12768.1
17372.4
34155.6
69566.1
85791.6
109181
125668
137842
147395
148531
151282
153177
147155
136847
126372
116701
107095
99819.4
93814.9
87884.7
81329.5
75079.4
69021.2
64326.2
60978.8
58021.7
53442.4
47826.3
45968.9
38737.8
35367.2
39031.8
47557.2
50526.4
46205.7
39133.9
32974.1
25949
19360.4
16279.2
16229.8
16913.6
19231.8
21054.4
20215.8
19264.9
18364.2
16048.1
13331.3
11423.7
9169.75
9432.37
11255.6
15308.9
13735.9
6006.18
-1.61171e+06
-1.62886e+06
-1.62184e+06
-1.61244e+06
-1.60731e+06
-1.60016e+06
-1.59018e+06
-1.57716e+06
-1.56161e+06
-1.54857e+06
-1.54382e+06
-1.55887e+06
-1.6001e+06
-1.5526e+06
-1.50612e+06
-1.43197e+06
-1.21219e+06
-1.12041e+06
-1.11589e+06
-1.11985e+06
-1.07503e+06
-953112
-862442
-815542
-799606
-806846
-811409
-786207
-736496
-669690
-573607
-515116
-516964
-456127
-361943
-319696
-310483
-290025
-261750
-236783
-183182
-99379.9
-34314.4
7594.41
9926.51
15048.5
30468.3
63858.1
85795
111168
126398
137917
148438
150038
155198
155528
148487
137784
127286
117235
107040
99600.3
93841.8
88150.8
81509.6
75351
69073.7
64071
60956.6
58485.4
54145.3
48352.9
46786
39229.2
34237.6
38826.9
47533.4
50812.5
46641.1
38933.6
32531.9
25814.8
19328.3
15884.1
16071
17030.6
19188.7
20976.5
20109.4
19141
18642.9
16402.1
13071.2
11461.7
9111.7
10268.2
11849.9
15850.7
14809.5
6250.2
-1.61117e+06
-1.62775e+06
-1.62144e+06
-1.61213e+06
-1.60663e+06
-1.59954e+06
-1.58978e+06
-1.57694e+06
-1.56182e+06
-1.5492e+06
-1.544e+06
-1.55706e+06
-1.59132e+06
-1.55514e+06
-1.51411e+06
-1.43066e+06
-1.20189e+06
-1.11898e+06
-1.11266e+06
-1.11875e+06
-1.07488e+06
-951780
-860020
-818506
-806875
-817486
-815146
-783637
-727670
-668061
-590777
-525720
-519772
-468308
-372601
-323753
-308847
-291214
-269786
-241427
-178682
-98353.9
-37593
1345.95
8333.66
13401.9
28530.7
59830.8
85599.3
112312
126783
139861
150264
151691
157846
157058
149493
138525
128125
117783
106953
99244.7
93751.3
88466.9
81838.5
75680.5
69127.8
63597.5
60896.9
59012.7
55072
49398
47651.3
40255
33715.2
38462.8
47471
51005.2
46781.3
38653.5
32374.3
26126.5
19563
15729.9
15860.3
17187.8
19267.4
20888.7
19991.8
19005
18850.5
16632.9
12767.3
11337.2
9463.88
11084.4
12506.8
16414.3
15947.7
6500.67
-1.61085e+06
-1.62655e+06
-1.62111e+06
-1.61203e+06
-1.60611e+06
-1.59906e+06
-1.58942e+06
-1.57676e+06
-1.56226e+06
-1.54969e+06
-1.54399e+06
-1.55498e+06
-1.58222e+06
-1.55383e+06
-1.51944e+06
-1.42591e+06
-1.19226e+06
-1.11536e+06
-1.10991e+06
-1.11767e+06
-1.07432e+06
-951659
-860261
-821628
-814353
-830289
-819255
-783253
-720634
-664839
-602317
-536255
-516258
-476877
-383892
-328069
-308030
-294928
-279163
-247074
-176023
-96914.9
-39701.6
-3552.46
7874.19
13602.3
27959.5
56884.2
85742.4
113095
125888
140446
151220
152915
159131
157881
149870
138977
128927
118487
106992
98539.6
93495
88901
82280.1
76096.2
69246
62929.5
60520.5
59287.6
56073.2
50813
48582.5
41525.8
33851.5
38487.6
47301.8
51103.3
46598.5
38163.3
32184.2
26460.9
20033.5
15685.7
15621.4
17320.8
19362
20808.7
19890.6
18889.6
18909.4
16763.8
12602.1
11166.1
10080.1
11803.7
13183.7
17028.5
17021.4
6753.18
-1.61067e+06
-1.62542e+06
-1.62086e+06
-1.61209e+06
-1.60578e+06
-1.59872e+06
-1.58915e+06
-1.57665e+06
-1.56259e+06
-1.55009e+06
-1.54411e+06
-1.55207e+06
-1.57222e+06
-1.54698e+06
-1.52114e+06
-1.41962e+06
-1.18486e+06
-1.11037e+06
-1.10763e+06
-1.11559e+06
-1.07304e+06
-950724
-862067
-826377
-823448
-837860
-827049
-786172
-717541
-661762
-608164
-539566
-513943
-479867
-391735
-332970
-308353
-301811
-290911
-252965
-173117
-94610.1
-40427.1
-7720.41
7253.18
14854.3
29393.8
55396
84887.5
111349
123650
140270
150882
153435
160254
158286
149486
139239
129868
119346
107120
97769.4
92916.4
89319.4
83018.1
76681.8
69499.2
62001.1
59774
59609.8
57104.4
52105.1
49441.6
42744.6
34376.4
38831.5
47060.8
50987.9
46171.3
37444.8
31920.4
26691.4
20670.1
15863
15375.3
17374.4
19476.3
20725.3
19806.4
18772.3
18912.7
16867.6
12600.5
11010.9
10816.9
12355.5
13737.4
17677.9
18134.7
7097.53
-1.61071e+06
-1.62432e+06
-1.62064e+06
-1.61221e+06
-1.60565e+06
-1.5985e+06
-1.58893e+06
-1.57657e+06
-1.56301e+06
-1.55069e+06
-1.54394e+06