/*--------------------------------*- C++ -*----------------------------------*\
| =========                 |                                                 |
| \\      /  F ield         | foam-extend: Open Source CFD                    |
|  \\    /   O peration     | Version:     5.0                                |
|   \\  /    A nd           | Web:         http://www.foam-extend.org         |
|    \\/     M anipulation  |                                                 |
\*---------------------------------------------------------------------------*/
FoamFile
{
    version     2.0;
    format      ascii;
    class       surfaceScalarField;
    location    "0.08";
    object      phi;
}
// * * * * * * * * * * * * * * * * * * * * * * * * * * * * * * * * * * * * * //

dimensions      [0 3 -1 0 0 0 0];

internalField   nonuniform List<scalar> 
7860
(
-0.0197061
0.0247061
-0.157054
0.137362
-0.294515
0.137474
-0.433038
0.138536
-0.640141
0.207115
-0.900394
0.260266
-1.2385
0.338114
-1.49903
0.260544
-1.5906
0.09158
-1.74999
0.159407
-1.95079
0.200811
-2.42471
0.473925
-3.1716
0.746909
-4.63527
1.46368
-6.25977
1.62452
-6.83958
0.579831
-7.00095
0.161386
-7.01581
0.0148678
-6.8131
-0.202691
-6.44218
-0.370905
-6.00564
-0.436524
-5.34393
-0.661701
-4.62646
-0.717457
-4.33542
-0.291025
-4.16772
-0.167691
-3.84158
-0.326141
-3.7658
-0.075772
-4.16463
0.398835
-5.11685
0.952225
-6.52706
1.41022
-6.76753
0.240474
-5.43543
-1.33209
-4.16241
-1.27302
-3.97054
-0.191868
-3.89985
-0.0706829
-3.47519
-0.424664
-3.21083
-0.264356
-3.17247
-0.0383541
-3.48733
0.31486
-4.13982
0.652496
-4.75877
0.618952
-4.97075
0.211984
-4.71772
-0.253026
-4.49011
-0.227602
-4.43821
-0.0519027
-4.1622
-0.276007
-3.84568
-0.31652
-3.63523
-0.210445
-3.31161
-0.323614
-2.92751
-0.384103
-2.60519
-0.322315
-2.4276
-0.177596
-2.19968
-0.227917
-1.87959
-0.320094
-1.52093
-0.358659
-1.24157
-0.279352
-1.08208
-0.159491
-0.88435
-0.197735
-0.701008
-0.183342
-0.561501
-0.139508
-0.442213
-0.119289
-0.391053
-0.0511617
-0.296382
-0.0946721
-0.229759
-0.0666249
-0.153518
-0.0762429
-0.139611
-0.0139092
-0.167597
0.0279834
-0.146561
-0.0210382
-0.126952
-0.0196117
-0.102587
-0.0243682
-0.0938198
-0.00877059
-0.0753404
-0.0184828
-0.0334525
-0.0418915
0.0210868
-0.0545431
0.0812151
-0.0601322
0.129276
-0.0480648
0.171675
-0.0424036
0.192324
-0.020654
0.184953
0.00736575
0.165471
0.0194769
0.154329
0.0111377
0.187982
-0.0336578
0.253192
-0.0652147
0.3333
-0.0801127
0.371929
-0.0386332
0.363201
0.0087233
0.355014
0.00818214
0.343054
0.0119557
0.33783
0.00522006
0.333215
0.00461112
0.30239
0.0308215
0.252697
0.0496896
0.186394
0.0663008
0.120191
0.0662008
0.0907843
0.0294045
0.0920098
-0.00122699
0.103196
-0.0111872
0.126346
-0.0231509
0.146394
-0.0200487
-0.0295846
-0.091019
0.120739
-0.327409
0.373784
-0.581668
0.391762
-0.829794
0.38669
-1.13828
0.51563
-1.52411
0.646123
-1.7921
0.606123
-1.96924
0.437704
-2.12722
0.24959
-2.36624
0.398447
-2.8543
0.688894
-3.52479
1.14444
-5.09268
2.31483
-7.86574
4.23677
-9.63072
3.38955
-9.87083
0.819986
-10.4079
0.698526
-10.4201
0.0270796
-9.92094
-0.701816
-9.11636
-1.17546
-8.03247
-1.52038
-6.80432
-1.88982
-5.83872
-1.68304
-5.63569
-0.494037
-5.69204
-0.111327
-5.53714
-0.481027
-5.53271
-0.0801902
-6.31376
1.1799
-8.29584
2.93432
-9.95631
3.0707
-9.32055
-0.395274
-7.20171
-3.45092
-5.49449
-2.98023
-5.18761
-0.498736
-5.2766
0.0183159
-5.17938
-0.521875
-4.8532
-0.590537
-4.91561
0.0240716
-5.48766
0.886913
-6.55232
1.71716
-7.65947
1.72611
-7.60883
0.161347
-6.93003
-0.931821
-6.49863
-0.658999
-6.27096
-0.279571
-5.96642
-0.580538
-5.38816
-0.894782
-5.00918
-0.589418
-4.8214
-0.511397
-4.54873
-0.65677
-4.19948
-0.671559
-3.87036
-0.506718
-3.52784
-0.570438
-3.18688
-0.661052
-2.83889
-0.706649
-2.43789
-0.680347
-2.1106
-0.486783
-1.85795
-0.45039
-1.62693
-0.414361
-1.41064
-0.355795
-1.19531
-0.33463
-1.00047
-0.245999
-0.902674
-0.192473
-0.729967
-0.239335
-0.5688
-0.237415
-0.486641
-0.0960728
-0.436149
-0.0225131
-0.417824
-0.0393687
-0.343204
-0.0942382
-0.278581
-0.0889972
-0.237783
-0.0495754
-0.177749
-0.0785248
-0.101095
-0.118554
0.00869501
-0.164341
0.141083
-0.192529
0.255089
-0.162081
0.345659
-0.132984
0.399037
-0.0740422
0.400972
0.00541965
0.374111
0.0463274
0.371315
0.0139229
0.451056
-0.113408
0.599197
-0.213366
0.739938
-0.220864
0.799775
-0.0984795
0.794204
0.0142848
0.760391
0.0419851
0.713777
0.0585599
0.672008
0.0469804
0.637589
0.0390227
0.617155
0.0512484
0.56258
0.104259
0.432433
0.196444
0.297638
0.200992
0.241493
0.0855459
0.24761
-0.00734562
0.249579
-0.0131585
0.271872
-0.0454445
0.294094
-0.0422718
-0.0540174
-0.132911
0.258668
-0.34365
0.584556
-0.564056
0.612196
-0.79001
0.612671
-1.07418
0.799829
-1.37234
0.944302
-1.64493
0.878731
-1.95482
0.747618
-2.50587
0.800667
-3.05325
0.945844
-3.54346
1.17914
-4.43949
2.04051
-6.09897
3.97433
-7.58889
5.72673
-8.19285
3.99355
-8.44509
1.07227
-8.64611
0.89959
-8.50743
-0.111557
-8.0384
-1.17082
-7.62537
-1.58845
-7.18742
-1.9583
-6.70916
-2.36806
-6.58278
-1.8094
-6.52841
-0.54839
-6.64371
0.00399009
-6.97211
-0.152606
-7.5142
0.461912
-8.8344
2.50012
-11.4653
5.56519
-12.5178
4.12329
-10.3977
-2.51536
-7.59666
-6.25198
-5.74016
-4.83672
-5.84223
-0.396657
-6.50234
0.678431
-6.5396
-0.484602
-6.34066
-0.78947
-6.61692
0.300341
-7.38194
1.65194
-8.534
2.86924
-8.81598
2.00809
-8.10174
-0.55288
-7.30768
-1.72588
-6.55659
-1.41009
-6.23094
-0.605218
-6.11157
-0.699909
-5.5305
-1.47584
-4.96524
-1.15468
-4.81148
-0.665156
-4.61169
-0.856557
-4.37336
-0.909884
-4.05832
-0.821764
-3.76461
-0.864147
-3.49168
-0.933975
-3.18407
-1.01426
-2.89435
-0.970074
-2.5498
-0.831332
-2.2925
-0.707693
-2.06586
-0.640999
-1.8421
-0.579561
-1.61299
-0.563737
-1.37618
-0.482809
-1.1608
-0.407855
-0.980703
-0.419438
-0.883045
-0.335076
-0.734137
-0.244984
-0.613067
-0.143587
-0.525278
-0.127163
-0.448815
-0.170708
-0.384394
-0.153424
-0.289128
-0.144849
-0.234861
-0.132799
-0.143098
-0.210325
-0.0107385
-0.296709
0.135408
-0.338685
0.28032
-0.307003
0.376104
-0.228778
0.447476
-0.145425
0.471463
-0.0185784
0.455952
0.0618283
0.484201
-0.0143358
0.582954
-0.212172
0.7242
-0.354622
0.842967
-0.339641
0.874139
-0.129662
0.834886
0.0535284
0.780002
0.0968584
0.713926
0.124626
0.655568
0.10533
0.614995
0.0795895
0.617251
0.0489862
0.597122
0.124383
0.521021
0.272541
0.436806
0.285204
0.335011
0.187339
0.302607
0.0250554
0.34341
-0.053963
0.349676
-0.0517108
0.363541
-0.056138
-0.117109
-0.134612
0.398296
-0.322187
0.77216
-0.500785
0.790818
-0.717784
0.829694
-0.979268
1.06134
-1.26329
1.22834
-1.56765
1.18312
-2.00035
1.18033
-2.60272
1.40307
-3.0464
1.38955
-3.4631
1.59589
-4.00947
2.5869
-4.88559
4.85048
-5.17726
6.01842
-5.27011
4.08644
-5.63143
1.43362
-5.63868
0.906872
-5.46065
-0.289558
-5.35618
-1.27526
-5.42969
-1.51491
-5.9135
-1.47447
-6.72642
-1.55511
-7.58869
-0.947104
-8.06382
-0.0732308
-8.55597
0.496164
-8.88008
0.171526
-8.81441
0.396265
-9.95406
3.63979
-11.658
7.26913
-11.5089
3.97423
-9.61553
-4.40872
-8.29845
-7.56905
-7.4582
-5.67695
-7.68728
-0.167563
-8.68972
1.68088
-9.05737
-0.11694
-8.57972
-1.2671
-8.78108
0.501713
-10.046
2.91685
-10.1127
2.93597
-8.60202
0.497426
-7.20621
-1.94868
-6.47273
-2.45935
-5.78018
-2.10263
-5.41011
-0.975289
-5.45738
-0.652626
-5.10493
-1.82829
-4.58273
-1.67688
-4.53435
-0.713535
-4.65177
-0.739132
-4.39822
-1.16344
-4.05016
-1.16982
-3.74322
-1.17108
-3.49735
-1.17985
-3.25376
-1.25784
-2.95837
-1.26547
-2.70483
-1.08488
-2.48337
-0.929153
-2.27346
-0.850907
-2.04865
-0.804377
-1.83126
-0.781124
-1.54779
-0.766281
-1.26597
-0.689682
-1.08934
-0.596072
-0.997186
-0.42723
-0.844625
-0.397549
-0.667053
-0.321163
-0.589195
-0.205025
-0.560875
-0.199033
-0.466767
-0.247537
-0.345143
-0.266479
-0.276023
-0.201926
-0.183993
-0.302362
-0.0349691
-0.44574
0.101683
-0.475344
0.241639
-0.446968
0.356551
-0.343699
0.43289
-0.221774
0.480864
-0.0665611
0.478872
0.0638116
0.507501
-0.0429746
0.596306
-0.300985
0.708475
-0.466801
0.762296
-0.393472
0.717646
-0.0850212
0.630456
0.140709
0.531875
0.19543
0.465048
0.191446
0.407559
0.162812
0.39885
0.0882937
0.437304
0.0105272
0.493431
0.0682527
0.478708
0.287259
0.402992
0.360917
0.339053
0.251275
0.325472
0.038634
0.362663
-0.0911552
0.355089
-0.0441371
0.329346
-0.0303957
-0.130286
-0.148044
0.551355
-0.309077
0.933219
-0.467487
0.949251
-0.654741
1.01697
-0.911374
1.31799
-1.18556
1.50255
-1.45782
1.4554
-1.96911
1.69164
-2.43597
1.86996
-2.61921
1.57283
-2.70484
1.68155
-3.0342
2.91628
-3.73899
5.55528
-3.44803
5.72748
-3.01895
3.65738
-3.14756
1.56225
-3.00692
0.766254
-2.7972
-0.499258
-2.94605
-1.12639
-3.61205
-0.8489
-4.9307
-0.15579
-6.47526
-0.0105292
-7.35562
-0.0667074
-7.3123
-0.116519
-7.1617
0.345585
-7.4656
0.475461
-8.27747
1.20817
-9.95336
5.31571
-9.86666
7.18244
-8.40852
2.51611
-6.45136
-6.36587
-6.64164
-7.37875
-7.99175
-4.32683
-9.13147
0.972174
-10.0386
2.58799
-10.0999
-0.0555561
-9.94958
-1.41743
-9.95252
0.504663
-9.49948
2.46383
-8.1195
1.556
-6.4078
-1.21427
-5.34173
-3.01474
-4.8444
-2.95668
-4.47026
-2.47676
-4.20201
-1.24353
-4.2151
-0.639536
-4.13244
-1.91095
-3.84109
-1.96822
-4.04484
-0.509781
-4.33167
-0.452299
-4.26412
-1.23099
-3.93698
-1.49696
-3.60387
-1.50419
-3.35325
-1.43048
-3.14975
-1.46134
-2.91423
-1.50099
-2.70166
-1.29745
-2.50738
-1.12343
-2.32268
-1.0356
-2.12057
-1.00649
-1.90271
-0.998987
-1.67417
-0.994825
-1.42063
-0.943222
-1.19812
-0.818587
-0.965202
-0.660147
-0.870036
-0.492719
-0.760109
-0.431094
-0.648451
-0.316686
-0.581561
-0.265928
-0.502351
-0.326752
-0.438015
-0.33082
-0.336115
-0.303832
-0.234324
-0.404159
-0.117472
-0.562599
0.0441871
-0.637011
0.185124
-0.587912
0.307804
-0.466388
0.40407
-0.318047
0.452376
-0.114875
0.475192
0.040987
0.50058
-0.0683706
0.560808
-0.361221
0.590164
-0.496166
0.540924
-0.34424
0.422585
0.0333092
0.264785
0.2985
0.127317
0.33289
0.064358
0.254398
0.0589161
0.168248
0.083389
0.063816
0.187356
-0.0934436
0.295681
-0.0400763
0.343359
0.239578
0.33394
0.370334
0.298661
0.286552
0.293315
0.0439785
0.31504
-0.112882
0.29876
-0.0278583
0.25736
0.0110038
-0.154504
-0.162553
0.718921
-0.281656
1.05235
-0.401045
1.06866
-0.597651
1.2136
-0.856178
1.57654
-1.11743
1.76382
-1.4271
1.7651
-1.71593
1.9805
-1.73605
1.89011
-1.68916
1.52596
-1.76813
1.76054
-2.1887
3.33687
-2.38401
5.7506
-1.8119
5.15539
-1.39609
3.24159
-1.34183
1.508
-0.9898
0.414233
-1.10509
-0.38396
-1.59964
-0.631818
-2.92435
0.475827
-4.70687
1.62675
-5.82754
1.11016
-5.8366
-0.0576146
-5.41359
-0.539505
-5.07827
0.0102895
-4.81439
0.211612
-5.21341
1.6072
-5.84186
5.94418
-5.48962
6.83021
-4.91013
1.93663
-4.39811
-6.87788
-6.07371
-5.70314
-7.45857
-2.94194
-8.5827
2.09632
-9.23353
3.23883
-8.24616
-1.04291
-8.08823
-1.57534
-8.94093
1.35738
-7.95495
1.47786
-5.5968
-0.802138
-3.98529
-2.82576
-3.30287
-3.69715
-3.20886
-3.05069
-3.25169
-2.43393
-2.89398
-1.60124
-2.9443
-0.589215
-3.16859
-1.68666
-3.04561
-2.0912
-3.26965
-0.285736
-3.62372
-0.0982298
-3.79981
-1.05489
-3.6146
-1.68217
-3.34787
-1.77091
-3.14079
-1.63756
-2.97198
-1.63015
-2.8466
-1.62637
-2.62582
-1.51823
-2.43599
-1.31326
-2.26483
-1.20676
-2.07803
-1.1933
-1.87572
-1.2013
-1.66751
-1.20304
-1.45251
-1.15822
-1.23115
-1.03995
-1.07347
-0.817833
-0.917225
-0.648968
-0.78447
-0.563852
-0.688164
-0.412997
-0.588578
-0.365518
-0.523198
-0.392136
-0.479553
-0.37447
-0.382598
-0.400792
-0.286494
-0.500269
-0.157296
-0.691804
-0.0187699
-0.775544
0.116128
-0.722818
0.242066
-0.592333
0.340056
-0.416044
0.407966
-0.182793
0.439613
0.00933226
0.471164
-0.0999281
0.475611
-0.365677
0.405935
-0.426499
0.235269
-0.173583
0.0347226
0.233848
-0.181598
0.514813
-0.361438
0.512723
-0.383996
0.276949
-0.315489
0.0997363
-0.235828
-0.0158495
-0.100101
-0.229175
0.0428637
-0.183044
0.137019
0.145421
0.201541
0.30581
0.220599
0.267493
0.239762
0.0248138
0.252077
-0.125198
0.211758
0.0124597
0.133375
0.0893862
-0.109788
-0.171838
0.895771
-0.258385
1.13892
-0.364029
1.17433
-0.55583
1.40542
-0.806459
1.82719
-1.06395
2.02133
-1.22508
1.92625
-1.12098
1.87642
-0.970386
1.73955
-0.998488
1.55408
-1.07836
1.84042
-1.34303
3.60155
-1.1159
5.52349
-0.547916
4.58742
-0.29653
2.99022
0.0669377
1.14455
0.406223
0.0749578
0.00321463
0.019058
-1.41694
0.788348
-2.84653
1.90544
-3.50051
2.28076
-3.59894
1.20861
-2.63745
-1.01909
-1.42667
-1.75026
-0.830025
-0.586346
-0.652888
0.0344852
-0.776558
1.73087
-1.27622
6.44384
-1.74149
7.29549
-2.06112
2.25627
-2.01819
-6.92081
-3.25187
-4.46945
-4.44813
-1.74568
-4.9955
2.6437
-4.51445
2.75779
-4.51047
-1.04688
-6.21867
0.132865
-6.9946
2.13333
-5.27598
-0.240752
-3.30672
-2.77139
-2.19948
-3.933
-1.83011
-4.06652
-1.77585
-3.10494
-1.80882
-2.40096
-1.62258
-1.78747
-1.82265
-0.389149
-2.07578
-1.43352
-2.07155
-2.09543
-2.22246
-0.134824
-2.65153
0.330842
-3.06855
-0.637874
-3.16276
-1.58796
-3.11478
-1.81889
-2.98815
-1.76419
-2.78786
-1.83044
-2.60274
-1.81149
-2.43488
-1.68608
-2.28247
-1.46568
-2.14116
-1.34807
-1.92659
-1.40787
-1.78988
-1.33801
-1.60687
-1.38605
-1.41145
-1.35364
-1.22688
-1.22452
-1.05388
-0.990841
-0.911458
-0.791388
-0.772706
-0.702607
-0.666872
-0.518835
-0.595379
-0.437014
-0.559608
-0.427911
-0.503627
-0.430456
-0.407582
-0.496841
-0.296071
-0.611786
-0.207574
-0.780307
-0.0857158
-0.897408
0.0381232
-0.846663
0.157929
-0.712146
0.267984
-0.526106
0.339382
-0.254197
0.399177
-0.0504693
0.413727
-0.114485
0.347717
-0.299674
0.156289
-0.235079
-0.11544
0.0981392
-0.389774
0.508175
-0.646471
0.771504
-0.812582
0.678828
-0.84451
0.308872
-0.745402
0.000623905
-0.589168
-0.172088
-0.433836
-0.38451
-0.199464
-0.417419
0.025677
-0.0797233
0.0989903
0.232494
0.141425
0.225056
0.172458
-0.00622013
0.181441
-0.134182
0.121797
0.072103
0.00292987
0.208253
-0.0686457
-0.172593
1.07338
-0.229121
1.19547
-0.315132
1.26036
-0.504751
1.59506
-0.743105
2.06556
-0.895672
2.17392
-0.834568
1.86517
-0.607139
1.64902
-0.459323
1.59175
-0.409209
1.50398
-0.489201
1.92043
-0.639212
3.75158
-0.143939
5.02823
0.393451
4.05004
0.730363
2.65332
1.22912
0.645803
1.2063
0.0977783
0.39919
0.826179
-1.37123
2.55879
-2.1137
2.64792
-1.39894
1.56601
-0.353791
0.163469
0.786845
-2.15971
1.36504
-2.32845
1.8005
-1.0218
2.3295
-0.494505
2.18606
1.87432
1.28701
7.34291
0.54958
8.03293
0.723179
2.08268
0.552298
-6.74992
-1.93734
-1.9798
-3.64982
-0.0331859
-3.72731
2.72119
-2.51326
1.54374
-2.4588
-1.10133
-4.03485
1.70892
-4.3627
2.46119
-3.06964
-1.53381
-1.70255
-4.13848
-0.765392
-4.87015
-0.66095
-4.17096
-0.645495
-3.1204
-0.743796
-2.30266
-0.653219
-1.87805
-0.861517
-0.180849
-1.08511
-1.20992
-1.01113
-2.16941
-1.18145
0.0354956
-1.59709
0.746483
-2.10784
-0.127124
-2.58997
-1.10583
-2.72638
-1.68248
-2.56906
-1.92151
-2.44136
-1.95814
-2.31849
-1.93436
-2.2024
-1.80218
-2.0887
-1.57938
-1.97272
-1.46405
-1.89473
-1.48587
-1.70291
-1.52983
-1.51028
-1.57867
-1.33976
-1.52416
-1.17486
-1.38943
-1.02186
-1.14384
-0.835039
-0.978216
-0.696848
-0.840801
-0.639087
-0.576598
-0.612869
-0.463235
-0.564684
-0.4761
-0.486983
-0.50816
-0.405881
-0.577949
-0.322147
-0.695525
-0.222567
-0.879893
-0.151649
-0.968333
-0.0490686
-0.94925
0.0660491
-0.827271
0.170184
-0.630248
0.258681
-0.3427
0.313985
-0.10578
0.304996
-0.105501
0.178287
-0.172971
-0.0811236
0.0243242
-0.444996
0.462004
-0.801921
0.865093
-1.05739
1.02697
-1.20036
0.821796
-1.19157
0.300072
-1.08907
-0.101874
-0.94385
-0.317313
-0.707092
-0.621271
-0.426892
-0.697621
-0.187215
-0.319404
-0.0269402
0.0722179
0.0572439
0.14087
0.108936
-0.0579133
0.0987929
-0.12404
0.0172033
0.153692
-0.0803217
0.305778
-0.0145048
-0.149969
1.22836
-0.184384
1.2299
-0.277095
1.35308
-0.463568
1.78155
-0.572222
2.17424
-0.485753
2.08748
-0.356625
1.73606
-0.211409
1.50382
-0.0140713
1.39442
0.082921
1.407
0.000265515
2.00309
-0.165228
3.91708
0.496596
4.36642
1.19998
3.34667
1.5966
2.2567
1.95328
0.289133
1.18226
0.868803
-0.589078
2.59753
-0.914551
2.88428
-0.250985
1.98437
0.317138
0.997897
1.3589
-0.87829
2.18537
-2.98617
2.51646
-2.65953
2.8055
-1.31083
2.84209
-0.531093
2.2716
2.44481
1.74222
7.8723
1.40681
8.36835
1.89988
1.58961
2.0239
-6.87394
-0.60504
0.64915
-2.41276
1.77455
-2.35444
2.66288
-1.70505
0.894353
-1.16114
-1.64523
-2.02191
2.56971
-2.71582
3.15511
-1.74985
-2.49977
-0.823991
-5.06434
0.176835
-5.87097
0.105538
-4.09966
-0.132681
-2.88217
-0.385132
-2.0502
-0.281659
-1.98152
-0.217042
-0.245464
-0.326094
-1.10087
-0.351492
-2.14401
-0.317929
0.00193288
-0.566887
0.995442
-1.17123
0.477221
-1.91059
-0.36647
-2.22501
-1.36806
-2.21569
-1.93083
-2.11737
-2.05646
-2.03392
-2.01781
-1.95128
-1.88483
-1.86248
-1.66818
-1.77112
-1.5554
-1.67855
-1.57844
-1.54777
-1.66062
-1.38466
-1.74178
-1.23971
-1.66911
-1.11176
-1.51739
-0.973863
-1.28173
-0.824567
-1.12751
-0.706179
-0.959191
-0.628138
-0.654643
-0.579741
-0.511635
-0.521804
-0.534041
-0.469131
-0.560838
-0.408913
-0.638171
-0.353884
-0.750559
-0.297592
-0.93619
-0.233576
-1.03235
-0.14395
-1.03888
-0.045299
-0.925928
0.058621
-0.734174
0.139538
-0.423623
0.195864
-0.162112
0.154633
-0.0642757
-0.0164979
-0.00184637
-0.325015
0.332834
-0.748465
0.885447
-1.16776
1.28438
-1.44481
1.30401
-1.50886
0.885837
-1.4347
0.22591
-1.31592
-0.220652
-1.11287
-0.520372
-0.854349
-0.879793
-0.534934
-1.01704
-0.251058
-0.603282
-0.103306
-0.0755356
-0.00425317
0.0418158
0.0435136
-0.105681
-0.0190648
-0.061463
-0.117059
0.251686
-0.166758
0.355476
-0.00982507
-0.114485
1.34785
-0.120609
1.23604
-0.205013
1.43751
-0.331657
1.90821
-0.29324
2.13584
-0.107273
1.90153
0.0507329
1.57808
0.225831
1.32873
0.395368
1.2249
0.516031
1.28635
0.386991
2.13214
0.235602
4.06848
1.09919
3.50284
1.74303
2.70284
2.24223
1.7575
2.16017
0.371193
1.00429
2.02469
-0.314045
3.91588
-0.247206
2.81745
0.550653
1.18652
1.18594
0.362619
1.92641
-1.61876
2.17194
-3.2317
2.01516
-2.50275
1.83247
-1.12813
1.6205
-0.319111
1.26232
2.803
1.78122
7.35341
2.50727
7.64231
2.87255
1.22434
1.28871
-5.29009
-0.429207
2.36707
-1.15544
2.50079
-2.23054
3.73798
-1.647
0.310819
-0.954091
-2.33813
-1.59084
3.20646
-1.78204
3.34631
-0.937772
-3.34402
-0.311386
-5.69072
0.754446
-6.9368
0.370857
-3.71607
-0.0776721
-2.43364
-0.457031
-1.67084
-0.156155
-2.28239
0.28079
-0.682407
-0.0219927
-0.798087
-0.150716
-2.01528
0.110412
-0.259194
0.203437
0.902418
-0.388544
1.0692
-1.1522
0.397186
-1.65881
-0.861446
-1.81423
-1.77542
-1.78599
-2.08469
-1.7362
-2.0676
-1.6869
-1.93412
-1.62785
-1.72724
-1.56123
-1.62203
-1.48868
-1.65098
-1.38645
-1.76285
-1.25182
-1.87642
-1.12941
-1.79153
-1.03164
-1.61515
-0.911435
-1.40194
-0.793728
-1.24522
-0.69853
-1.05439
-0.623289
-0.729886
-0.544728
-0.590198
-0.483113
-0.595659
-0.443093
-0.60086
-0.408186
-0.673082
-0.388762
-0.769987
-0.372591
-0.952366
-0.324178
-1.08077
-0.252533
-1.11053
-0.168103
-1.01036
-0.0789578
-0.823325
0.000387939
-0.502973
0.0316244
-0.193353
-0.0368447
0.00418839
-0.246306
0.207609
-0.591315
0.677837
-1.03581
1.32994
-1.45155
1.70011
-1.69359
1.54605
-1.73059
0.922834
-1.64553
0.140852
-1.43785
-0.428344
-1.15761
-0.800608
-0.90737
-1.13004
-0.630841
-1.29357
-0.378897
-0.855228
-0.181919
-0.272515
-0.0574599
-0.0826444
-0.056508
-0.106634
-0.147486
0.0295135
-0.207495
0.311695
-0.230305
0.378286
0.00614239
-0.0649875
1.41785
-0.053435
1.22451
-0.109012
1.4931
-0.118917
1.91813
0.0392622
1.97768
0.245991
1.69482
0.428904
1.39517
0.576604
1.18104
0.759699
1.04181
0.911095
1.13496
0.845094
2.19815
0.904921
4.00866
1.77424
2.63354
2.18132
2.29577
2.43331
1.50552
1.63902
1.16548
0.126528
3.53719
0.0666912
3.97573
0.745972
2.13818
0.975343
0.95715
1.45809
-0.120119
1.75395
-1.91462
1.38844
-2.86618
0.743845
-1.85815
0.381189
-0.765471
0.683531
-0.621446
1.82058
1.66596
2.32858
6.84542
1.99855
7.97234
2.51839
0.704505
2.81951
-5.5912
1.89189
3.2947
0.434363
3.95832
-1.18907
5.36142
-1.11567
0.237427
-1.13856
-2.31524
-1.0802
3.14811
-0.319335
2.58545
-0.479216
-3.18414
-0.342807
-5.82712
0.968509
-8.24811
0.705808
-3.45337
0.15426
-1.88209
-0.423394
-1.09319
-0.165697
-2.54008
0.471986
-1.32009
-0.0216692
-0.30443
-0.287101
-1.74985
0.028853
-0.575146
0.623211
0.30806
0.341223
1.35119
-0.311021
1.04943
-1.04822
-0.124252
-1.39245
-1.43118
-1.4628
-2.01434
-1.53248
-1.99792
-1.49096
-1.97565
-1.42686
-1.79134
-1.3676
-1.68129
-1.31687
-1.70171
-1.23063
-1.8491
-1.11702
-1.99002
-1.02468
-1.88387
-0.934413
-1.70542
-0.839506
-1.49685
-0.745067
-1.33966
-0.715869
-1.08359
-0.607271
-0.838486
-0.475721
-0.721751
-0.442819
-0.628564
-0.419999
-0.623683
-0.40388
-0.689204
-0.445158
-0.728713
-0.470981
-0.926547
-0.425935
-1.12582
-0.373611
-1.16286
-0.313184
-1.0708
-0.237508
-0.899006
-0.172248
-0.568238
-0.161399
-0.204207
-0.251877
0.0946625
-0.495539
0.451266
-0.857425
1.03972
-1.29241
1.76492
-1.69534
2.10304
-1.88531
1.73601
-1.86525
0.902766
-1.70425
-0.0201523
-1.48186
-0.650731
-1.23618
-1.04629
-0.947055
-1.41917
-0.620927
-1.6197
-0.412433
-1.06372
-0.254337
-0.430613
-0.14333
-0.193653
-0.166754
-0.0832106
-0.252277
0.115036
-0.307866
0.367283
-0.29632
0.36674
-0.0239775
-0.0058519
1.42871
0.0265407
1.19213
0.0261493
1.4935
0.141896
1.8024
0.343732
1.77586
0.548886
1.48968
0.701866
1.2422
0.871403
1.01151
1.06812
0.8451
1.21533
0.987758
1.20201
2.21148
1.27009
3.94059
2.07753
1.8261
2.36326
2.01004
2.40994
1.45884
1.21623
2.3592
-0.0426799
4.7961
0.324075
3.60898
0.979533
1.48272
1.15507
0.781616
1.36042
-0.325469
1.14703
-1.70123
0.177474
-1.89662
-0.697863
-0.982804
-0.18845
-1.27487
1.03375
-1.84364
1.94081
0.758899
2.27844
6.5078
2.07182
8.17897
2.55446
0.22187
3.31535
-6.35209
2.03267
4.57739
0.22876
5.76223
-0.228292
5.81848
0.179108
-0.169967
-1.04992
-1.0862
-0.957721
3.05592
0.266323
1.36142
-0.868383
-2.04943
-0.963913
-5.73158
0.952276
-10.1643
0.811837
-3.31293
0.482867
-1.55312
0.358956
-0.969272
0.200499
-2.38163
0.373294
-1.49288
-0.237647
0.306513
-0.244355
-1.74314
0.224794
-1.04429
0.819249
-0.286394
0.776271
1.39417
0.218414
1.60729
-0.532078
0.62624
-1.01176
-0.951496
-1.24746
-1.77864
-1.28691
-1.95847
-1.2694
-1.99316
-1.22051
-1.84023
-1.18281
-1.71899
-1.15311
-1.73141
-1.08569
-1.91651
-1.05306
-2.02266
-0.933741
-2.00319
-0.796919
-1.84224
-0.746876
-1.54689
-0.733274
-1.35327
-0.670547
-1.14632
-0.544862
-0.964174
-0.462792
-0.803823
-0.420064
-0.671294
-0.382187
-0.661562
-0.399545
-0.671849
-0.462976
-0.665285
-0.510328
-0.8792
-0.527353
-1.1088
-0.513733
-1.17649
-0.479881
-1.10465
-0.420087
-0.958805
-0.364282
-0.624047
-0.363902
-0.20459
-0.489718
0.220475
-0.756331
0.717875
-1.12878
1.41216
-1.58637
2.22251
-1.92358
2.44024
-2.02302
1.83545
-1.90834
0.788081
-1.72937
-0.199122
-1.51969
-0.860416
-1.24458
-1.32139
-0.97388
-1.68987
-0.67553
-1.91805
-0.466364
-1.27289
-0.327266
-0.569713
-0.244578
-0.276342
-0.281237
-0.0465521
-0.387513
0.221311
-0.40192
0.381689
-0.333307
0.298128
-0.0391875
0.0387363
1.39498
0.0820974
1.14878
0.140377
1.43524
0.370237
1.57256
0.630204
1.51591
0.774988
1.3449
0.93072
1.08648
1.11307
0.829171
1.32782
0.630356
1.46492
0.850667
1.44228
2.23413
1.54517
3.83772
2.2307
1.14058
2.46319
1.77756
2.43088
1.49115
1.49914
3.29094
0.785019
5.51024
0.899049
3.49496
1.07605
1.30572
1.18125
0.67642
0.901688
-0.0459018
-0.0960132
-0.70352
-0.648278
-1.34435
-0.382021
-1.24905
-0.00604657
-1.65084
0.702083
-2.55176
1.3247
0.13629
1.56027
6.27223
2.2276
7.51165
3.34008
-0.890609
2.57498
-5.58698
1.82262
5.32976
1.39603
6.18882
0.835937
6.37857
0.712273
-0.0462984
-0.124653
-0.249271
0.303839
2.62744
0.672599
0.99266
-1.31327
-0.0635478
-1.42085
-5.62401
0.719939
-12.3051
0.836465
-3.42945
0.749906
-1.46656
0.612237
-0.8316
-0.114086
-1.6553
0.00970673
-1.61667
-0.217036
0.533257
-0.101366
-1.85881
0.428697
-1.57436
0.696244
-0.553941
0.704222
1.38619
0.550216
1.76129
-0.0210838
1.19754
-0.647477
-0.325103
-0.949687
-1.47643
-1.0669
-1.84125
-1.04694
-2.01312
-1.013
-1.87416
-1.05523
-1.67677
-1.01639
-1.77025
-0.951889
-1.98101
-0.888785
-2.08577
-0.821344
-2.07063
-0.750212
-1.91337
-0.687432
-1.60967
-0.655505
-1.3852
-0.579278
-1.22255
-0.530649
-1.0128
-0.469577
-0.864897
-0.394502
-0.746371
-0.382759
-0.673308
-0.426529
-0.628082
-0.476438
-0.615379
-0.565579
-0.790062
-0.641871
-1.03252
-0.68144
-1.13692
-0.678541
-1.10755
-0.630885
-1.00647
-0.586146
-0.668789
-0.61379
-0.176948
-0.748741
0.355422
-1.03121
1.00034
-1.45394
1.83489
-1.87941
2.64798
-2.1002
2.66102
-2.07183
1.80709
-1.92119
0.63744
-1.72018
-0.400142
-1.47359
-1.107
-1.23085
-1.56414
-0.982378
-1.93835
-0.707145
-2.19329
-0.532258
-1.44778
-0.410053
-0.691918
-0.35744
-0.328956
-0.42694
0.0229472
-0.534419
0.32879
-0.505772
0.353041
-0.401299
0.193655
-0.0696061
0.0824556
1.31753
0.144911
1.08634
0.256871
1.32329
0.493035
1.3364
0.775264
1.23369
0.984618
1.13555
1.11951
0.951593
1.3244
0.624287
1.58627
0.36849
1.67994
0.756998
1.59074
2.32334
1.74543
3.68304
2.38646
0.499555
2.59437
1.56965
2.33501
1.75051
1.06794
4.55802
0.528735
6.04945
0.994674
3.02903
1.15369
1.14671
0.988738
0.841375
0.212999
0.72984
-0.645375
0.154859
-1.488
-0.501713
-1.2949
-1.44214
0.0417257
-2.98746
0.80824
-3.31827
1.02306
-0.07853
0.931328
6.36397
2.10707
6.33591
3.89009
-2.67362
1.78521
-3.4821
1.58719
5.52779
2.39466
5.38135
1.52765
7.24559
1.26439
0.216965
0.937274
0.0778483
1.11204
2.45268
1.18666
0.918041
-0.249478
1.37259
-0.461453
-5.41203
0.268862
-13.0354
0.801337
-3.96192
1.00878
-1.674
0.75171
-0.574531
0.179836
-1.08343
0.144037
-1.58087
0.0588913
0.618405
0.182086
-1.982
0.307306
-1.69957
0.381687
-0.628321
0.537397
1.23048
0.648357
1.65033
0.319222
1.52668
-0.230348
0.224467
-0.664625
-1.04216
-0.854511
-1.65137
-0.837745
-2.02989
-0.864294
-1.84762
-0.846465
-1.6946
-0.841932
-1.77479
-0.802361
-2.02058
-0.752873
-2.13526
-0.76964
-2.05386
-0.736622
-1.94639
-0.642336
-1.70396
-0.591249
-1.43628
-0.588945
-1.22485
-0.530049
-1.0717
-0.4726
-0.922347
-0.445326
-0.773647
-0.407043
-0.711593
-0.430568
-0.604559
-0.509191
-0.536758
-0.633378
-0.665879
-0.782035
-0.883863
-0.877531
-1.04143
-0.910647
-1.07444
-0.874868
-1.04225
-0.824995
-0.718664
-0.856851
-0.145095
-1.00235
0.500913
-1.30488
1.30287
-1.73679
2.26679
-2.09596
3.00714
-2.19649
2.76155
-2.09205
1.70264
-1.86835
0.413737
-1.63859
-0.629905
-1.42161
-1.32398
-1.20525
-1.78049
-0.977711
-2.1659
-0.719936
-2.45107
-0.581798
-1.58592
-0.498976
-0.774741
-0.487926
-0.340008
-0.580913
0.115934
-0.644377
0.392253
-0.575784
0.284448
-0.433463
0.0513336
-0.123759
0.105831
1.21671
0.196363
0.99582
0.375311
1.14435
0.623229
1.08849
0.854252
1.00267
1.09654
0.893273
1.30157
0.74656
1.45799
0.467874
1.65817
0.168314
1.80262
0.612551
1.65822
2.46775
1.90375
3.43752
2.52565
-0.122341
2.69044
1.40486
1.88405
2.5569
0.692048
5.75003
0.547946
6.19356
1.07632
2.50066
1.18305
1.03998
0.816013
1.20841
-0.7076
2.25346
-1.88621
1.33347
-1.22689
-1.16103
0.113947
-2.78296
0.861743
-3.73525
1.01296
-3.46949
1.11742
-0.182989
1.55473
5.92667
3.01135
4.87929
4.34517
-4.00744
2.75277
-1.8897
2.23773
6.04283
1.70826
5.91083
1.50945
7.4444
1.53781
0.188618
1.32795
0.287706
1.68765
2.09299
1.42465
1.18104
1.47384
1.3234
1.3933
-5.33149
0.0377621
-11.6798
0.554298
-4.47846
0.998393
-2.11809
0.719689
-0.295827
0.490258
-0.853992
0.545774
-1.63639
0.477057
0.687124
0.387996
-1.89294
0.0960929
-1.40767
0.0268337
-0.559061
0.353695
0.903621
0.6467
1.35733
0.492547
1.68083
0.0372025
0.679812
-0.399477
-0.605476
-0.679646
-1.3712
-0.665489
-2.04404
-0.590259
-1.92285
-0.621402
-1.66346
-0.647243
-1.74895
-0.648228
-2.0196
-0.684685
-2.0988
-0.651264
-2.08728
-0.570704
-2.02695
-0.549705
-1.72496
-0.575473
-1.41052
-0.560774
-1.23955
-0.523444
-1.10903
-0.470032
-0.97576
-0.408914
-0.834767
-0.417439
-0.703069
-0.455774
-0.566226
-0.540511
-0.452024
-0.723485
-0.482907
-0.949787
-0.657565
-1.13662
-0.854601
-1.20487
-1.00619
-1.1759
-1.07122
-1.08527
-0.809295
-1.0951
-0.135267
-1.24587
0.651676
-1.57316
1.63015
-2.0376
2.73123
-2.26796
3.2375
-2.22086
2.71445
-2.0276
1.50937
-1.7756
0.161738
-1.55735
-0.848159
-1.35046
-1.53088
-1.15451
-1.97644
-0.963958
-2.35645
-0.757227
-2.6578
-0.642422
-1.70073
-0.59008
-0.827083
-0.621594
-0.308494
-0.744596
0.238935
-0.796477
0.444134
-0.645316
0.133287
-0.446683
-0.1473
-0.177766
0.156945
1.06477
0.290574
0.862201
0.475077
0.959856
0.735359
0.828216
0.980252
0.757779
1.14892
0.724611
1.32535
0.570135
1.54818
0.245044
1.75066
-0.034163
1.84982
0.513397
1.79636
2.52121
2.18574
3.04814
2.58223
-0.518829
2.62825
1.35885
1.65643
3.52872
0.829831
6.57663
0.84972
6.17367
1.15705
2.19332
1.14714
1.04989
0.0412914
2.31427
-1.19442
3.48917
-0.725892
0.86495
0.525406
-2.41232
1.22473
-3.48229
1.30016
-3.81068
1.16144
-3.33077
0.926577
0.0518756
1.4826
5.37064
3.47397
2.88793
4.59726
-5.13074
3.63075
-0.923178
2.67781
6.99578
1.1963
7.39234
1.80473
6.83598
1.89908
0.094273
1.43561
0.751176
2.24632
1.28228
1.25885
2.16851
1.99485
0.587408
2.67529
-6.01192
0.352983
-9.35754
0.209328
-4.3348
0.689797
-2.59856
0.735351
-0.34138
0.847896
-0.966536
0.885829
-1.67432
0.759321
0.813633
0.360227
-1.49385
-0.158034
-0.889408
-0.189156
-0.527939
0.231186
0.483279
0.552971
1.03555
0.591991
1.64181
0.265426
1.00638
-0.135024
-0.205026
-0.402133
-1.10409
-0.498982
-1.94719
-0.493134
-1.92869
-0.455919
-1.70067
-0.473731
-1.73113
-0.549205
-1.94412
-0.545507
-2.1025
-0.484174
-2.14862
-0.481001
-2.03013
-0.483406
-1.72256
-0.502913
-1.39101
-0.559375
-1.18309
-0.519726
-1.14868
-0.464821
-1.03067
-0.434928
-0.864661
-0.416788
-0.72121
-0.484021
-0.498994
-0.597462
-0.338584
-0.799068
-0.281303
-1.0951
-0.361539
-1.4037
-0.546003
-1.53169
-0.878199
-1.47876
-1.12416
-1.35708
-0.930973
-1.30231
-0.190047
-1.46093
0.810296
-1.83625
2.00548
-2.25621
3.15118
-2.35219
3.33348
-2.18683
2.54908
-1.93734
1.25989
-1.68553
-0.0900788
-1.46008
-1.07361
-1.26727
-1.72368
-1.09578
-2.14793
-0.934851
-2.51738
-0.77537
-2.81728
-0.694924
-1.78117
-0.687068
-0.83494
-0.760262
-0.235302
-0.883105
0.361779
-0.864805
0.425834
-0.679671
-0.051847
-0.456494
-0.370478
-0.248873
0.18385
0.885925
0.316429
0.72963
0.530968
0.745323
0.757169
0.602019
0.952127
0.562824
1.16069