/*--------------------------------*- C++ -*----------------------------------*\
| =========                 |                                                 |
| \\      /  F ield         | foam-extend: Open Source CFD                    |
|  \\    /   O peration     | Version:     5.0                                |
|   \\  /    A nd           | Web:         http://www.foam-extend.org         |
|    \\/     M anipulation  |                                                 |
\*---------------------------------------------------------------------------*/
FoamFile
{
    version     2.0;
    format      ascii;
    class       volVectorField;
    location    "0.08";
    object      U;
}
// * * * * * * * * * * * * * * * * * * * * * * * * * * * * * * * * * * * * * //

dimensions      [0 1 -1 0 0 0 0];

internalField   nonuniform List<vector> 
4000
(
(-2.53839 1.00879 0)
(-15.1862 4.27436 0)
(-43.526 4.30831 0)
(-71.905 4.04102 0)
(-102.901 6.0677 0)
(-155.757 6.74156 0)
(-206.319 9.70766 0)
(-282.082 4.01612 0)
(-315.058 0.45087 0)
(-323.203 2.44985 0)
(-379.101 4.06855 0)
(-407.298 26.077 0)
(-563.152 26.2188 0)
(-741.459 38.8969 0)
(-1113.88 40.9301 0)
(-1335.67 16.8522 0)
(-1414.67 5.02296 0)
(-1383.88 0.702458 0)
(-1398.99 -5.36823 0)
(-1324.14 -6.95971 0)
(-1252.77 -8.42847 0)
(-1148.51 -28.6168 0)
(-1014.61 -25.6116 0)
(-850.344 -15.9283 0)
(-869.795 -11.6318 0)
(-791.252 -6.18549 0)
(-743.518 -1.16936 0)
(-783.239 25.8751 0)
(-898.035 29.5893 0)
(-1159.93 14.9527 0)
(-1390.51 -0.486549 0)
(-1275.02 -23.3233 0)
(-944.08 -25.5969 0)
(-768.076 4.35329 0)
(-795.857 6.30722 0)
(-747.228 3.92241 0)
(-645.207 1.91883 0)
(-647.513 -3.21691 0)
(-636.733 7.09501 0)
(-767.545 6.88709 0)
(-872.425 9.16252 0)
(-991.633 0.509983 0)
(-999.849 -5.34958 0)
(-907.881 4.2376 0)
(-895.227 5.00968 0)
(-881.626 5.05623 0)
(-784.297 0.0707892 0)
(-756.917 -5.70257 0)
(-682.8 -9.24552 0)
(-643.907 -15.901 0)
(-535.763 -11.4714 0)
(-503.384 -5.70436 0)
(-464.915 -5.80797 0)
(-415.462 -10.1186 0)
(-337.229 -9.51154 0)
(-266.149 -6.10135 0)
(-235.7 -3.72334 0)
(-200.455 -6.45079 0)
(-149.499 -4.75955 0)
(-130.928 -4.29001 0)
(-94.2578 -2.9159 0)
(-83.0476 -0.422248 0)
(-73.5909 -1.7726 0)
(-46.6194 -1.9608 0)
(-41.7578 -1.88682 0)
(-24.6355 0.556143 0)
(-31.8824 1.19657 0)
(-30.4043 -0.540345 0)
(-29.7714 -0.544256 0)
(-21.5133 -0.492483 0)
(-20.131 -0.0504698 0)
(-16.5348 -0.497694 0)
(-12.0485 -1.04987 0)
(-1.87806 -1.32111 0)
(10.6472 -1.44413 0)
(21.5187 -1.13216 0)
(30.4992 -1.08787 0)
(37.334 -0.509983 0)
(38.185 0.277011 0)
(35.0826 0.519054 0)
(31.728 0.433867 0)
(32.2128 -0.717811 0)
(43.3069 -1.53082 0)
(60.4757 -2.00266 0)
(71.514 -1.05204 0)
(72.736 0.156197 0)
(75.2014 0.126867 0)
(67.4291 0.18744 0)
(68.9925 0.0922391 0)
(68.5477 0.0741455 0)
(62.0075 1.04907 0)
(57.725 1.79567 0)
(43.2618 1.65018 0)
(30.2547 1.49796 0)
(19.8147 0.443234 0)
(17.6231 -0.217986 0)
(20.0753 -0.120495 0)
(21.1353 -0.48989 0)
(28.8202 -0.513504 0)
(32.1333 -0.682552 0)
(-11.7516 2.90167 0)
(-38.0437 12.185 0)
(-86.8925 12.9279 0)
(-142.952 12.9453 0)
(-190.875 18.1805 0)
(-266.589 23.6717 0)
(-344.612 25.2606 0)
(-366.642 19.0589 0)
(-417.105 6.07089 0)
(-437.304 6.92872 0)
(-512.025 15.8151 0)
(-633.844 31.713 0)
(-779.928 65.0508 0)
(-1311.13 141.07 0)
(-1851.76 132.015 0)
(-1906.75 29.6043 0)
(-2059.05 20.7623 0)
(-2103.84 2.60445 0)
(-2031.21 -20.2065 0)
(-1935.28 -38.1732 0)
(-1714.45 -51.0384 0)
(-1502.5 -64.6531 0)
(-1244.49 -63.0548 0)
(-1109.57 -23.1772 0)
(-1128.33 -10.6527 0)
(-1137.09 -30.6571 0)
(-1080.34 -15.7781 0)
(-1153.95 26.8987 0)
(-1399.63 83.5797 0)
(-1938.04 123.109 0)
(-1954.59 27.3272 0)
(-1715.46 -97.1558 0)
(-1234.29 -106.167 0)
(-1022 -17.9985 0)
(-1017.04 -0.635556 0)
(-1070.64 -26.0718 0)
(-1008.34 -24.9103 0)
(-944.544 -2.41226 0)
(-1040.52 26.5456 0)
(-1172.26 55.722 0)
(-1421.24 59.0717 0)
(-1591.33 11.5335 0)
(-1459.52 -25.461 0)
(-1335.56 -20.5723 0)
(-1276.9 -9.40593 0)
(-1229.08 -24.645 0)
(-1159.85 -29.7018 0)
(-997.845 -16.0248 0)
(-990.888 -21.1532 0)
(-940.956 -26.9274 0)
(-886.755 -25.6717 0)
(-791.106 -19.1291 0)
(-752.756 -20.5533 0)
(-659.35 -24.1544 0)
(-615.938 -27.1318 0)
(-514.792 -24.7801 0)
(-466.72 -16.607 0)
(-379.487 -15.6713 0)
(-360.294 -14.9954 0)
(-290.815 -12.1095 0)
(-273.653 -11.1343 0)
(-205.709 -6.92089 0)
(-193.409 -6.61994 0)
(-170.283 -7.28581 0)
(-117.538 -7.49881 0)
(-115.585 -2.78831 0)
(-79.9978 0.66098 0)
(-88.5818 -0.996047 0)
(-80.9155 -2.78744 0)
(-56.7794 -2.61957 0)
(-55.483 -1.16628 0)
(-38.5996 -2.14281 0)
(-30.4818 -3.73714 0)
(-10.794 -5.08216 0)
(14.9227 -5.90111 0)
(40.8098 -4.80802 0)
(61.8512 -3.9381 0)
(75.2791 -2.01366 0)
(82.4117 0.592181 0)
(77.2756 1.72565 0)
(73.0697 0.602321 0)
(78.218 -3.49091 0)
(102.469 -6.72506 0)
(140.789 -7.23817 0)
(153.127 -3.50136 0)
(161.112 0.596537 0)
(160.151 1.16088 0)
(144.777 1.69003 0)
(139.788 1.09698 0)
(131.892 0.942107 0)
(119.57 2.33648 0)
(125.916 4.14352 0)
(99.4605 6.89308 0)
(71.696 6.4122 0)
(49.91 2.5108 0)
(48.0681 -0.33297 0)
(52.0157 -0.658511 0)
(47.9287 -1.96431 0)
(59.8847 -1.68966 0)
(60.3635 -2.02561 0)
(-21.3828 9.37347 0)
(-45.7713 24.4785 0)
(-85.1665 25.691 0)
(-137.476 25.5271 0)
(-180.564 33.4386 0)
(-251.524 40.4427 0)
(-298.38 36.8615 0)
(-354.98 27.0183 0)
(-421.269 22.8346 0)
(-584.469 35.2639 0)
(-644.391 47.3925 0)
(-770.124 76.1678 0)
(-1009.49 163.365 0)
(-1478.9 253.406 0)
(-1556.26 189.733 0)
(-1650.36 49.9142 0)
(-1749.07 42.8093 0)
(-1707.54 -0.549387 0)
(-1663.87 -49.4361 0)
(-1549.26 -75.1049 0)
(-1502.73 -96.0405 0)
(-1373.45 -120.181 0)
(-1338.39 -97.2661 0)
(-1320.8 -25.8989 0)
(-1271.03 -5.65926 0)
(-1364.23 -18.1587 0)
(-1429.85 8.56352 0)
(-1602.29 88.087 0)
(-1986.41 201.491 0)
(-2616.46 194.283 0)
(-2265.07 -54.6902 0)
(-1824.54 -242.294 0)
(-1304.23 -194.46 0)
(-1063.34 -30.1733 0)
(-1220.29 12.1258 0)
(-1359.24 -29.866 0)
(-1263.4 -34.4988 0)
(-1288.81 4.47369 0)
(-1383.58 59.7531 0)
(-1595.81 130.121 0)
(-1779.38 120.583 0)
(-1681.26 16.8731 0)
(-1570.69 -50.5986 0)
(-1380.93 -43.9304 0)
(-1256.3 -16.026 0)
(-1232.58 -32.129 0)
(-1213.16 -59.0649 0)
(-1000.36 -44.1633 0)
(-974.629 -31.7294 0)
(-951.964 -37.4447 0)
(-899.151 -39.2507 0)
(-849.23 -31.2298 0)
(-769.53 -36.0413 0)
(-737.213 -40.6905 0)
(-660.277 -43.5392 0)
(-608.723 -41.9863 0)
(-555.844 -33.0117 0)
(-464.597 -28.9279 0)
(-449.969 -26.606 0)
(-376.518 -23.2828 0)
(-360.223 -22.4515 0)
(-286.848 -18.3971 0)
(-262.557 -14.3216 0)
(-203.394 -15.5006 0)
(-185.057 -13.9472 0)
(-174.29 -8.55186 0)
(-119.926 -3.79136 0)
(-119.614 -3.95392 0)
(-92.3773 -6.29592 0)
(-87.9231 -6.12557 0)
(-66.8492 -4.62657 0)
(-47.3155 -4.89159 0)
(-45.1567 -8.18678 0)
(-12.7701 -11.4565 0)
(9.29344 -13.0464 0)
(43.9002 -11.6405 0)
(69.133 -8.81584 0)
(80.0098 -5.30815 0)
(97.324 -0.185488 0)
(90.7345 2.89528 0)
(91.9272 -0.144484 0)
(104.538 -8.28101 0)
(128.91 -14.4426 0)
(164.73 -14.5207 0)
(169.818 -6.28405 0)
(174.331 1.15211 0)
(163.308 3.05356 0)
(149.255 4.37933 0)
(135.759 3.71844 0)
(128.766 3.36613 0)
(113.968 2.7256 0)
(131.586 5.7999 0)
(107.955 12.3648 0)
(98.6906 12.6146 0)
(78.4089 6.88307 0)
(57.0992 0.306122 0)
(64.1641 -1.6969 0)
(74.0557 -2.51961 0)
(64.6378 -2.73214 0)
(82.68 -4.2967 0)
(-24.4789 16.3072 0)
(-44.116 34.1263 0)
(-77.8034 35.3833 0)
(-119.063 36.277 0)
(-170.499 46.706 0)
(-223.804 54.4475 0)
(-282.21 51.408 0)
(-340.445 48.1759 0)
(-453.462 55.6652 0)
(-588.295 61.9786 0)
(-641.793 71.147 0)
(-733.008 125.054 0)
(-881.594 223.789 0)
(-1125.09 302.575 0)
(-924.873 206.882 0)
(-1124.4 66.4279 0)
(-1156.71 47.6732 0)
(-1094.43 -9.46954 0)
(-1063.59 -62.8947 0)
(-1077.62 -81.6196 0)
(-1091.65 -95.6897 0)
(-1268.66 -105.611 0)
(-1458.15 -81.8586 0)
(-1605.62 -20.643 0)
(-1598.1 8.91842 0)
(-1788.46 2.40501 0)
(-1768.36 15.6616 0)
(-1795.24 144.636 0)
(-2286.53 361.705 0)
(-2387.69 239.169 0)
(-2034.72 -180.133 0)
(-1724.7 -394.04 0)
(-1705.43 -307.448 0)
(-1384.38 -30.1065 0)
(-1609.39 63.5241 0)
(-1841.88 -17.0865 0)
(-1785.6 -49.0198 0)
(-1672.67 27.3174 0)
(-1880.48 120.436 0)
(-2182.04 164.489 0)
(-1799.98 81.5245 0)
(-1552.02 -55.6812 0)
(-1355.33 -108.923 0)
(-1261.95 -87.7825 0)
(-1067.6 -38.5212 0)
(-1094.18 -34.7187 0)
(-1086.88 -85.5253 0)
(-954.179 -69.2116 0)
(-873.596 -34.5275 0)
(-939.889 -43.7355 0)
(-926.741 -53.2103 0)
(-830.472 -48.7063 0)
(-785.931 -49.695 0)
(-712.499 -52.8191 0)
(-686.864 -57.9076 0)
(-610.652 -56.5942 0)
(-578.874 -48.2455 0)
(-503.427 -41.3939 0)
(-488.231 -37.9839 0)
(-421.001 -34.6077 0)
(-398.013 -33.7951 0)
(-336.915 -31.0388 0)
(-281.342 -27.2255 0)
(-225.36 -25.0375 0)
(-207.972 -19.3811 0)
(-195.959 -15.7275 0)
(-143.085 -11.6863 0)
(-118.006 -8.04008 0)
(-118.962 -9.2119 0)
(-106.802 -10.1736 0)
(-80.5475 -10.2265 0)
(-56.3491 -8.33532 0)
(-52.6077 -12.8256 0)
(-21.5545 -18.5103 0)
(8.44229 -20.3634 0)
(31.3205 -18.7517 0)
(65.964 -14.2942 0)
(75.5389 -9.15493 0)
(96.1153 -1.96593 0)
(95.5301 3.15074 0)
(96.578 -1.18738 0)
(108.833 -12.7362 0)
(130.156 -21.0125 0)
(157.586 -19.2473 0)
(143.856 -6.44611 0)
(138.037 4.09502 0)
(117.809 6.76736 0)
(95.3237 7.83798 0)
(90.7109 7.46375 0)
(74.0415 4.42004 0)
(82.3805 2.06553 0)
(91.4256 6.28316 0)
(106.199 14.3616 0)
(84.1323 16.7922 0)
(79.0226 11.0647 0)
(58.3077 1.77308 0)
(72.0381 -3.75431 0)
(74.03 -2.6477 0)
(66.608 -2.49932 0)
(66.447 -6.52733 0)
(-30.8668 23.6332 0)
(-44.2783 43.0328 0)
(-71.7312 43.9091 0)
(-111.414 46.3531 0)
(-153.257 59.6342 0)
(-214.278 68.4237 0)
(-260.665 66.0732 0)
(-317.929 71.7028 0)
(-463.13 87.1612 0)
(-511.837 78.3566 0)
(-545.42 87.7422 0)
(-523.173 138.18 0)
(-709.825 260.706 0)
(-845.591 300.693 0)
(-493.755 197.228 0)
(-662.535 77.8647 0)
(-625.952 44.3189 0)
(-571.847 -21.9171 0)
(-525.189 -64.3453 0)
(-650.394 -62.6299 0)
(-790.386 -44.701 0)
(-1172.62 -33.6314 0)
(-1460.23 -13.8652 0)
(-1524.4 -15.3494 0)
(-1367.12 14.4024 0)
(-1435.84 3.69512 0)
(-1556.44 23.2615 0)
(-1801.1 227.323 0)
(-2271.91 370.111 0)
(-1697.16 155.738 0)
(-1497.95 -305.032 0)
(-989.62 -397.755 0)
(-1739.18 -272.725 0)
(-1622.66 7.28364 0)
(-1937.15 106.401 0)
(-2038.78 12.5773 0)
(-1994.48 -77.4514 0)
(-2025.67 9.40584 0)
(-2006.76 151.947 0)
(-1867.98 124.311 0)
(-1285.98 -29.1599 0)
(-1166.58 -139.346 0)
(-1015.43 -148.215 0)
(-941.557 -120.263 0)
(-868.539 -61.0715 0)
(-811.689 -32.6663 0)
(-869.175 -97.9878 0)
(-779.662 -94.1066 0)
(-758.128 -31.9409 0)
(-860.561 -33.1335 0)
(-872.779 -61.8678 0)
(-831.555 -67.4471 0)
(-740.194 -67.034 0)
(-703.184 -65.524 0)
(-638.311 -68.1797 0)
(-617.651 -69.5708 0)
(-553.991 -60.186 0)
(-526.817 -51.6958 0)
(-474.779 -46.8508 0)
(-454.281 -46.0406 0)
(-393.426 -44.593 0)
(-369.537 -44.2168 0)
(-299.787 -41.1925 0)
(-268.232 -35.4869 0)
(-210.118 -26.9538 0)
(-179.031 -22.2558 0)
(-170.818 -18.6467 0)
(-128.058 -13.0147 0)
(-132.516 -11.6374 0)
(-100.911 -13.8893 0)
(-100.465 -14.9341 0)
(-74.8344 -12.8048 0)
(-57.4742 -17.5712 0)
(-36.556 -25.2839 0)
(-10.0739 -27.9003 0)
(27.3486 -25.8468 0)
(46.8522 -20.2955 0)
(75.2818 -13.2859 0)
(85.1261 -4.47031 0)
(94.6857 3.0217 0)
(96.5731 -2.78472 0)
(105.445 -17.4662 0)
(119.765 -25.3197 0)
(120.963 -19.9393 0)
(91.1183 -2.24942 0)
(72.8539 10.0341 0)
(36.9749 12.6993 0)
(14.2407 11.5354 0)
(11.6634 8.68028 0)
(13.4476 4.35575 0)
(16.7927 -1.43456 0)
(57.3736 1.03752 0)
(60.6991 14.0961 0)
(75.6057 18.8731 0)
(60.1894 14.204 0)
(60.8573 2.089 0)
(56.8091 -4.91323 0)
(69.9632 -2.12586 0)
(48.1063 -0.927335 0)
(55.2329 -7.38969 0)
(-38.3124 31.7256 0)
(-44.1198 50.0802 0)
(-60.2533 50.731 0)
(-95.6284 55.8984 0)
(-146.855 72.2743 0)
(-199.319 81.6169 0)
(-247.211 80.8436 0)
(-320.256 95.9915 0)
(-359.639 97.9869 0)
(-337.118 75.5172 0)
(-342.08 86.3897 0)
(-352.091 156.758 0)
(-550.922 288.074 0)
(-463.439 274.967 0)
(-206.844 172.118 0)
(-311.714 79.945 0)
(-252.562 32.5068 0)
(-136.17 -25.8622 0)
(-285.313 -41.6568 0)
(-352.353 -24.6075 0)
(-814.464 43.267 0)
(-1065.25 28.1717 0)
(-1301.67 9.55561 0)
(-1072.37 -0.136589 0)
(-1053.29 24.1184 0)
(-950.061 33.4902 0)
(-964.668 98.329 0)
(-1149.55 299.006 0)
(-1264.85 354.211 0)
(-973.661 94.3837 0)
(-828.751 -337.233 0)
(-876.258 -322.716 0)
(-1599.62 -163.801 0)
(-1493.87 105.543 0)
(-1897.23 153.133 0)
(-1756.35 -46.0186 0)
(-1511.63 -90.5949 0)
(-1765.11 61.5566 0)
(-1859.17 101.885 0)
(-1417.14 7.93272 0)
(-722.258 -111.684 0)
(-755.976 -174.843 0)
(-619.829 -151.95 0)
(-676.778 -127.003 0)
(-648.348 -73.375 0)
(-510.807 -30.1056 0)
(-657.633 -91.4786 0)
(-603.811 -104.487 0)
(-623.096 -21.4898 0)
(-684.934 -16.5594 0)
(-759.728 -60.1672 0)
(-760.563 -81.859 0)
(-682.511 -82.2787 0)
(-659.306 -77.3276 0)
(-597.083 -77.8469 0)
(-587.361 -77.8461 0)
(-557.702 -70.618 0)
(-492.312 -60.9987 0)
(-481.013 -56.4927 0)
(-425.107 -54.8225 0)
(-405.348 -55.0929 0)
(-346.508 -55.309 0)
(-320.376 -52.8971 0)
(-260.842 -47.2557 0)
(-230.085 -36.6887 0)
(-202.682 -28.2242 0)
(-165.647 -24.888 0)
(-143.45 -18.0689 0)
(-133.211 -15.5203 0)
(-102.04 -17.9994 0)
(-108.195 -18.0117 0)
(-84.1405 -17.7771 0)
(-66.4327 -22.6927 0)
(-48.4374 -31.4897 0)
(-14.1038 -35.4949 0)
(6.3222 -32.9083 0)
(39.9393 -26.4461 0)
(56.0316 -18.4719 0)
(78.9019 -7.17887 0)
(82.7871 1.01197 0)
(94.7931 -4.06032 0)
(95.1025 -18.3738 0)
(96.2128 -24.0114 0)
(70.4855 -14.1225 0)
(19.2691 5.60693 0)
(-10.3156 19.9291 0)
(-58.1919 21.1875 0)
(-86.2163 13.487 0)
(-67.1951 6.98555 0)
(-57.443 1.66203 0)
(-39.8178 -7.76322 0)
(-1.25564 -5.01712 0)
(18.2923 10.7206 0)
(35.2684 17.0711 0)
(47.9624 14.3576 0)
(41.7778 2.39137 0)
(54.578 -6.22244 0)
(46.9699 -0.566431 0)
(36.0158 2.29047 0)
(17.244 -6.85561 0)
(-45.3467 40.351 0)
(-42.3994 55.052 0)
(-51.918 56.3485 0)
(-88.6658 65.4709 0)
(-137.808 85.5429 0)
(-188.954 95.2333 0)
(-235.305 94.7185 0)
(-252.358 99.5366 0)
(-190.494 90.1955 0)
(-199.333 78.425 0)
(-199.588 89.0397 0)
(-221.489 176.279 0)
(-346.44 285.184 0)
(-147.105 246.897 0)
(-20.6014 154.534 0)
(-68.566 70.7793 0)
(70.0562 9.00149 0)
(102.646 -7.38701 0)
(-79.7987 -14.895 0)
(-483.417 68.3865 0)
(-664.099 109.582 0)
(-736.837 69.7525 0)
(-726.613 -27.4345 0)
(-348.565 -49.1085 0)
(-197.553 -0.780095 0)
(-120.197 21.2366 0)
(-115.366 94.6156 0)
(-221.15 316.527 0)
(-370.997 330.725 0)
(-380.741 67.1577 0)
(-261.715 -324.526 0)
(-496.866 -226.407 0)
(-863.576 -95.9302 0)
(-993.541 127.718 0)
(-1006.95 149.074 0)
(-745.128 -37.6493 0)
(-1030.5 -27.8372 0)
(-1493.45 92.5351 0)
(-1339.58 37.9603 0)
(-881.421 -94.5319 0)
(-333.246 -175.124 0)
(-436.88 -197.243 0)
(-350.103 -153.164 0)
(-377.822 -123.489 0)
(-357.378 -82.7521 0)
(-303.384 -28.0996 0)
(-409.944 -82.0471 0)
(-412.43 -105.189 0)
(-432.347 -10.7191 0)
(-452.952 6.96213 0)
(-601.692 -45.8381 0)
(-626.438 -87.0333 0)
(-636.758 -93.1876 0)
(-611.959 -85.2261 0)
(-583.012 -86.0876 0)
(-529.299 -87.0912 0)
(-516.465 -80.2586 0)
(-457.631 -69.7237 0)
(-454.721 -64.2788 0)
(-401.735 -65.1496 0)
(-368.18 -63.7718 0)
(-348.891 -64.7768 0)
(-294.198 -63.3221 0)
(-270.536 -56.5339 0)
(-218.784 -45.6512 0)
(-205.663 -36.1517 0)
(-160.202 -31.3375 0)
(-145.16 -23.3459 0)
(-122.363 -20.2841 0)
(-115.372 -20.9075 0)
(-110 -20.1545 0)
(-91.6757 -22.4715 0)
(-69.0703 -27.8845 0)
(-49.4247 -37.1045 0)
(-33.2555 -42.0941 0)
(-1.25125 -39.4791 0)
(16.1368 -32.7763 0)
(46.1585 -23.4487 0)
(60.1158 -11.1168 0)
(73.7815 -0.537116 0)
(88.1927 -5.50725 0)
(78.4795 -17.5299 0)
(61.7185 -17.3664 0)
(5.48377 -2.94765 0)
(-56.5101 17.6715 0)
(-104.465 31.8718 0)
(-150.086 29.8657 0)
(-174.524 14.2544 0)
(-162.875 2.84915 0)
(-134.05 -3.98867 0)
(-104.133 -14.7955 0)
(-70.8355 -14.5608 0)
(-9.63789 2.225 0)
(19.4274 14.6161 0)
(22.6861 12.4416 0)
(35.5598 0.374663 0)
(33.895 -6.36331 0)
(39.6555 1.79754 0)
(6.87785 7.52307 0)
(-6.94659 -4.7029 0)
(-51.1965 49.5489 0)
(-38.386 58.7481 0)
(-43.6458 60.7322 0)
(-76.8256 74.9156 0)
(-130.139 96.9786 0)
(-171.852 107.239 0)
(-184.397 97.6087 0)
(-146.566 88.596 0)
(-92.8301 83.5455 0)
(-91.4717 76.0248 0)
(-67.8014 96.1002 0)
(-123.429 182.419 0)
(-159.746 269.88 0)
(62.878 215.133 0)
(144.131 148.22 0)
(167.85 44.077 0)
(301.307 -5.73335 0)
(193.6 5.1538 0)
(-15.1639 76.5935 0)
(-526.309 143.934 0)
(-342.687 102.623 0)
(-212.258 42.842 0)
(53.3487 -79.5234 0)
(257.56 -103.219 0)
(298.242 -45.3144 0)
(429.012 -19.1604 0)
(543.421 81.3679 0)
(305.884 320.637 0)
(101.11 344.311 0)
(72.1257 127.559 0)
(414.415 -357.259 0)
(-123.712 -156.102 0)
(-738.544 -37.6202 0)
(-802.068 127.981 0)
(-717.89 87.2637 0)
(-202.851 -67.08 0)
(-734.742 82.3158 0)
(-946.246 108.835 0)
(-812.096 -48.0443 0)
(-532.153 -181.365 0)
(-41.0216 -215.455 0)
(-164.409 -209.614 0)
(-154.286 -160.298 0)
(-126.391 -121.151 0)
(-165.83 -84.651 0)
(-122.785 -12.7823 0)
(-195.453 -63.5458 0)
(-231.233 -105.526 0)
(-195.402 -1.48805 0)
(-269.918 25.6272 0)
(-364.042 -20.4146 0)
(-478.291 -69.1791 0)
(-558.101 -90.2697 0)
(-534.593 -93.8149 0)
(-491.526 -95.459 0)
(-484.513 -94.1339 0)
(-445.699 -87.5616 0)
(-435.974 -76.8791 0)
(-399.324 -70.319 0)
(-388.617 -72.8476 0)
(-370.165 -71.9963 0)
(-310.707 -74.1373 0)
(-294.259 -71.8683 0)
(-241.896 -65.6379 0)
(-226.535 -53.3215 0)
(-185.058 -44.11 0)
(-149.663 -38.7771 0)
(-126.507 -27.8382 0)
(-129.177 -22.8914 0)
(-115.718 -22.7701 0)
(-111.846 -23.3378 0)
(-82.7313 -26.8517 0)
(-77.6138 -33.0059 0)
(-51.6608 -41.6401 0)
(-36.46 -47.0557 0)
(-24.5547 -45.2067 0)
(4.39304 -38.6355 0)
(21.2569 -28.9309 0)
(45.7826 -14.5511 0)
(56.1002 -4.08787 0)
(71.6946 -6.1182 0)
(51.5512 -12.5194 0)
(20.6066 -6.43523 0)
(-47.8148 13.5686 0)
(-135.194 33.9165 0)
(-191.109 44.4125 0)
(-227.963 37.7061 0)
(-251.448 16.1987 0)
(-224.372 -1.83474 0)
(-210.141 -11.5657 0)
(-170.395 -24.7062 0)
(-113.52 -27.4843 0)
(-58.2988 -9.83756 0)
(-16.9746 7.44311 0)
(9.01443 9.82017 0)
(15.4904 -1.36139 0)
(28.7623 -7.01173 0)
(12.4039 5.60226 0)
(-9.10873 13.0744 0)
(-24.999 -1.91227 0)
(-51.9872 57.8062 0)
(-29.9705 60.8626 0)
(-33.4827 65.5744 0)
(-71.3113 84.9571 0)
(-120.096 108.717 0)
(-114.377 108.41 0)
(-76.5239 89.0748 0)
(-62.6342 78.2366 0)
(-20.729 74.7801 0)
(16.105 75.3605 0)
(24.1319 97.3504 0)
(-25.9244 189.904 0)
(-59.5169 239.24 0)
(220.153 185.611 0)
(308.858 120.836 0)
(340.965 22.5991 0)
(421.792 17.9957 0)
(63.9888 80.6485 0)
(-278.34 169.317 0)
(-95.1048 102.882 0)
(-20.5236 60.6663 0)
(151.276 -19.6719 0)
(382.041 -130.259 0)
(491.427 -133.158 0)
(515.644 -67.612 0)
(614.363 -29.7946 0)
(582.031 110.107 0)
(297.148 375.651 0)
(221.902 415.804 0)
(349.848 116.961 0)
(600.579 -357.997 0)
(274.81 -94.6719 0)
(-584.071 35.9155 0)
(-501.472 123.982 0)
(-443.37 82.5699 0)
(-152.512 -63.1932 0)
(-258.577 85.4668 0)
(-618.295 120.676 0)
(-480.167 -119.837 0)
(-337.333 -240.801 0)
(120.005 -263.435 0)
(34.252 -207.744 0)
(-37.564 -148.76 0)
(-39.3644 -110.456 0)
(-97.9077 -99.4413 0)
(-57.5494 -14.8389 0)
(11.0102 -52.1188 0)
(-134.057 -109.332 0)
(-39.2199 4.03089 0)
(-74.8874 47.5098 0)
(-148.302 10.3057 0)
(-320.296 -39.3377 0)
(-445.03 -79.3516 0)
(-444.902 -96.9459 0)
(-440.418 -100.407 0)
(-407.3 -99.3869 0)
(-408.082 -93.0889 0)
(-373.14 -81.6609 0)
(-371.888 -76.1959 0)
(-335.703 -76.9498 0)
(-336.382 -80.0801 0)
(-281.936 -83.294 0)
(-273.126 -79.9311 0)
(-223.233 -73.3043 0)
(-219.96 -61.036 0)
(-171.731 -52.7559 0)
(-158.948 -45.0259 0)
(-122.108 -30.8353 0)
(-128.369 -24.1161 0)
(-103.192 -24.8989 0)
(-107.291 -27.0106 0)
(-79.9702 -30.6618 0)
(-81.9063 -36.5893 0)
(-60.0209 -45.8748 0)
(-58.2175 -50.2647 0)
(-35.2493 -49.914 0)
(-22.9788 -44.046 0)
(3.94404 -34.2957 0)
(18.6032 -19.433 0)
(35.6706 -6.91055 0)
(45.0133 -4.47328 0)
(18.0659 -4.5953 0)
(-24.2306 8.8978 0)
(-100.73 33.3586 0)
(-203.051 53.121 0)
(-269.804 58.6057 0)
(-304.814 43.8619 0)
(-297.146 14.7171 0)
(-275.855 -6.9934 0)
(-250.007 -20.2499 0)
(-197.742 -36.6909 0)
(-144.912 -42.389 0)
(-71.1518 -23.1867 0)
(-28.8771 0.346414 0)
(-9.65225 4.52412 0)
(9.65366 -4.2978 0)
(8.55248 -4.84217 0)
(-13.7228 10.3521 0)
(-38.4316 16.7262 0)
(-30.9691 -0.458256 0)
(-49.349 65.0088 0)
(-19.5482 62.0546 0)
(-17.8969 69.9118 0)
(-58.1505 92.6703 0)
(-80.6098 109.213 0)
(-41.8301 99.3751 0)
(2.91545 83.5434 0)
(19.9099 70.3152 0)
(71.3013 66.332 0)
(88.7619 66.9079 0)
(125.745 104.433 0)
(23.7117 204.06 0)
(58.3903 199.851 0)
(344.225 152.178 0)
(398.056 98.7305 0)
(505.11 1.16909 0)
(342.983 61.7693 0)
(67.0001 174.418 0)
(-165.278 153.582 0)
(46.8716 84.1841 0)
(166.714 31.7402 0)
(310.813 -69.1588 0)
(456.6 -160.996 0)
(410.074 -130.13 0)
(390.086 -53.9863 0)
(351.477 -14.6009 0)
(367.246 151.383 0)
(120.859 443.225 0)
(310.793 403.643 0)
(750.867 18.2636 0)
(640.319 -287.448 0)
(-88.2626 117.416 0)
(-154.57 105.117 0)
(-403.541 149.298 0)
(-471.433 39.1442 0)
(-125.899 -92.3623 0)
(-238.888 102.522 0)
(-426.033 190.611 0)
(-308.153 -141.642 0)
(-216.53 -262.142 0)
(236.561 -318.435 0)
(142.85 -197.782 0)
(-37.4989 -140.674 0)
(-13.914 -96.7011 0)
(-154.117 -108.185 0)
(44.2077 -16.3169 0)
(118.118 -52.5515 0)
(-110.925 -104.222 0)
(-2.26768 -2.52159 0)
(70.4215 55.2395 0)
(11.2056 41.9588 0)
(-168.726 -1.42419 0)
(-290.713 -56.8316 0)
(-371.897 -94.8514 0)
(-353.806 -104.99 0)
(-361.973 -102.361 0)
(-334.064 -95.8151 0)
(-340.683 -84.6147 0)
(-311.032 -79.4808 0)
(-313.157 -81.1257 0)
(-282.338 -85.8194 0)
(-271.018 -90.8424 0)
(-231.511 -87.0803 0)
(-220.719 -78.0821 0)
(-190.39 -67.2479 0)
(-175.666 -59.6984 0)
(-143.009 -51.0197 0)
(-135.8 -34.4673 0)
(-112.274 -27.3951 0)
(-104.913 -28.2665 0)
(-90.359 -28.9548 0)
(-86.2733 -33.1416 0)
(-75.4464 -38.1997 0)
(-80.6937 -47.7853 0)
(-67.5115 -53.1067 0)
(-61.7933 -53.9535 0)
(-40.0463 -48.6469 0)
(-28.2027 -39.0604 0)
(-4.40275 -23.1831 0)
(3.54118 -8.85282 0)
(11.229 -1.72372 0)
(-24.8917 4.7549 0)
(-73.1983 25.0566 0)
(-158.898 55.3915 0)
(-259.055 75.6891 0)
(-327.511 72.3855 0)
(-346.878 46.0543 0)
(-342.986 9.01852 0)
(-314.908 -16.4504 0)
(-259.841 -32.7892 0)
(-205.539 -50.192 0)
(-157.832 -57.2063 0)
(-97.434 -36.4844 0)
(-53.6726 -8.66633 0)
(-16.132 -0.975161 0)
(-4.93115 -5.62205 0)
(-16.8556 -0.960358 0)
(-39.179 14.427 0)
(-50.4903 18.7845 0)
(-44.8065 0.156607 0)
(-43.2296 69.5246 0)
(-6.56028 61.6391 0)
(-4.07152 73.2563 0)
(-33.6273 97.3066 0)
(-20.1551 103.054 0)
(32.4732 90.7858 0)
(68.7183 73.2829 0)
(105.376 63.5131 0)
(125.538 56.4476 0)
(181.463 61.1264 0)
(190.842 107.24 0)
(140.098 204.566 0)
(220.606 150.701 0)
(445.145 118.573 0)
(471.681 74.6049 0)
(503.093 33.183 0)
(140.947 147.754 0)
(-84.6311 216.815 0)
(129.355 112.098 0)
(158.937 45.9617 0)
(224.189 9.56514 0)
(360.227 -92.6828 0)
(345.348 -154.953 0)
(209.113 -108.157 0)
(69.8891 -49.6092 0)
(97.366 -2.64584 0)
(245.835 124.012 0)
(484.16 339.35 0)
(256.582 438.24 0)
(507.126 85.6957 0)
(743.227 -247.432 0)
(426.328 189.056 0)
(237.671 148.556 0)
(-160.682 241.78 0)
(-304.523 2.38577 0)
(-50.0293 -140.579 0)
(-424.073 189.598 0)
(-15.7002 154.386 0)
(-134.556 -176.267 0)
(-236.963 -281.265 0)
(266.131 -371.351 0)
(202.517 -176.609 0)
(35.38 -105.874 0)
(12.4797 -67.4251 0)
(-182.489 -141.928 0)
(77.0453 -45.384 0)
(163.22 -33.4336 0)
(-133.598 -83.6741 0)
(-69.9 -25.0031 0)
(125.792 31.7264 0)
(116.223 61.4282 0)
(20.1694 42.0142 0)
(-142.412 -25.3001 0)
(-275.488 -81.8358 0)
(-281.961 -103.357 0)
(-304.899 -101.854 0)
(-309.842 -98.0123 0)
(-285.834 -88.1422 0)
(-285.803 -82.7461 0)
(-261.778 -83.9847 0)
(-264.202 -90.4732 0)
(-226.336 -96.8657 0)
(-222.951 -92.1555 0)
(-187.543 -83.1534 0)
(-184.187 -72.3519 0)
(-152.858 -65.1145 0)
(-146.567 -53.7882 0)
(-139.99 -39.3259 0)
(-101.021 -32.3575 0)
(-88.4518 -30.6959 0)
(-90.9043 -30.8319 0)
(-76.22 -33.9921 0)
(-83.939 -37.9344 0)
(-95.0965 -47.4481 0)
(-92.3163 -55.6114 0)
(-77.3118 -57.1506 0)
(-73.0643 -52.4169 0)
(-53.4559 -43.202 0)
(-42.5626 -26.7695 0)
(-26.8983 -9.9899 0)
(-35.7296 2.36613 0)
(-64.0999 16.1154 0)
(-133.701 42.6785 0)
(-205.743 76.9454 0)
(-313.833 94.5853 0)
(-370.464 82.1663 0)
(-380.798 45.3791 0)
(-362.752 3.30325 0)
(-318.483 -26.6311 0)
(-273.608 -46.0474 0)
(-223.878 -63.4141 0)
(-154.715 -72.9599 0)
(-96.8324 -48.1347 0)
(-67.7409 -17.5886 0)
(-30.8592 -6.95573 0)
(-24.7457 -5.01534 0)
(-41.2146 3.62518 0)
(-55.8153 17.1083 0)
(-75.3665 18.8349 0)
(-47.2859 -0.504635 0)
(-36.9542 71.8019 0)
(9.95342 60.8071 0)
(11.374 74.9466 0)
(4.89138 94.5058 0)
(45.9392 94.7834 0)
(89.0229 78.7712 0)
(132.957 66.9568 0)
(149.869 54.6911 0)
(198.465 47.3236 0)
(233.586 52.6933 0)
(259.965 110.461 0)
(211.503 192.971 0)
(304.318 111.968 0)
(475.071 105.326 0)
(517.523 76.5464 0)
(443.853 84.6195 0)
(30.9754 220.241 0)
(-38.973 185.279 0)
(178.509 89.4288 0)
(207.927 42.1798 0)
(248.071 -17.7899 0)
(296.288 -98.1422 0)
(171.671 -130.467 0)
(-96.9347 -64.7181 0)
(-212.967 -34.6036 0)
(149.045 -83.4545 0)
(335.683 35.8824 0)
(434.48 316.734 0)
(323.908 393.471 0)
(428.065 35.3896 0)
(850.967 -317.111 0)
(476.622 127.085 0)
(276.345 253.091 0)
(-263.048 249.254 0)
(172.606 -29.5746 0)
(5.9269 -87.6748 0)
(-474.316 178.63 0)
(95.2552 100.928 0)
(-2.91096 -129.754 0)
(-523.853 -303.61 0)
(288.128 -462.675 0)
(187.862 -168.247 0)
(87.0502 -82.7662 0)
(96.3966 -44.14 0)
(39.3236 -111.81 0)
(0.166061 -67.3914 0)
(207.638 -0.51269 0)
(-248.583 -92.6763 0)
(35.7827 -38.7929 0)
(121.117 4.33535 0)
(184.387 71.5671 0)
(129.997 66.1801 0)
(-41.7402 10.7004 0)
(-167.675 -61.9016 0)
(-237.52 -96.6822 0)
(-265.322 -99.2853 0)
(-249.568 -99.1901 0)
(-257.739 -91.3231 0)
(-231.341 -85.2783 0)
(-243.458 -86.4176 0)
(-216.089 -94.328 0)
(-215.921 -100.452 0)
(-208.432 -97.0939 0)
(-166.107 -89.3053 0)
(-149.985 -76.4804 0)
(-149.448 -67.7628 0)
(-146.391 -56.049 0)
(-121.874 -44.9549 0)
(-93.4249 -38.4632 0)
(-91.6928 -32.5245 0)
(-78.276 -32.1397 0)
(-73.2739 -34.3962 0)
(-85.8177 -35.2498 0)
(-100.373 -45.594 0)
(-102.274 -56.3732 0)
(-108.008 -58.9779 0)
(-98.2858 -54.5793 0)
(-95.2808 -46.8005 0)
(-73.7519 -30.1825 0)
(-72.2231 -10.6719 0)
(-71.36 7.13105 0)
(-123.839 28.7434 0)
(-178.342 60.2816 0)
(-269.98 97.8662 0)
(-366.737 114.096 0)
(-409.14 91.0314 0)
(-397.091 43.5217 0)
(-363.66 -5.04885 0)
(-327.116 -37.3292 0)
(-280.498 -59.2531 0)
(-220.698 -77.983 0)
(-167.852 -88.6682 0)
(-106.032 -58.6654 0)
(-79.9949 -25.3473 0)
(-47.4442 -12.0357 0)
(-49.4127 -3.35334 0)
(-62.1472 8.4273 0)
(-88.1058 19.2357 0)
(-81.9154 17.1395 0)
(-56.3519 -1.28758 0)
(-33.6778 70.8679 0)
(22.5614 58.2839 0)
(22.1151 74.645 0)
(38.9501 84.7814 0)
(103.782 82.2352 0)
(146.468 70.8199 0)
(165.756 57.567 0)
(208.082 46.2505 0)
(236.778 37.0076 0)
(300.226 45.7144 0)
(293.645 111.839 0)
(271.941 194.182 0)
(356.21 74.8348 0)
(481.044 97.1773 0)
(556.526 71.4759 0)
(410.684 146.848 0)
(168.688 271.059 0)
(161.205 171.595 0)
(209.669 65.9501 0)
(214.795 38.0974 0)
(248.087 -19.1658 0)
(118.929 -66.0162 0)
(-142.861 -72.1546 0)
(-109.492 -74.4001 0)
(-79.9208 -90.3252 0)
(82.8506 -108.891 0)
(254.593 15.6956 0)
(284.976 306.433 0)
(180.967 386.803 0)
(634.638 -13.6132 0)
(964.563 -319.387 0)
(72.3249 269.792 0)
(578.323 296.055 0)
(-66.0536 324.745 0)
(393.575 18.761 0)
(-5.98674 -8.54558 0)
(-113.873 134.696 0)
(252.582 48.0896 0)
(-0.575081 -62.678 0)
(-701.206 -289.646 0)
(265.998 -580.702 0)
(142.643 -168.912 0)
(129.981 -72.5479 0)
(161.079 -46.3253 0)
(82.1957 -102.325 0)
(-186.168 -99.331 0)
(265.835 26.7752 0)
(-301.469 -92.3673 0)
(150.466 -67.1586 0)
(97.7621 -25.7792 0)
(139.619 70.8572 0)
(147.239 88.3046 0)
(75.2202 50.7403 0)
(-79.2386 -32.3059 0)
(-180.432 -82.1168 0)
(-205.086 -96.7561 0)
(-219.95 -99.376 0)
(-198.759 -92.3944 0)
(-207.438 -85.434 0)
(-217.407 -87.87 0)
(-186.222 -97.4015 0)
(-192.959 -103.054 0)
(-165.013 -102.122 0)
(-164.612 -93.7433 0)
(-133.564 -79.3159 0)
(-141.298 -68.2167 0)
(-123.838 -58.7458 0)
(-107.566 -49.6286 0)
(-102.268 -42.1672 0)
(-86.0317 -35.5346 0)
(-72.9892 -33.2553 0)
(-78.944 -32.7391 0)
(-91.4841 -32.0481 0)
(-99.7598 -42.0505 0)
(-124.712 -54.0851 0)
(-131.487 -58.3428 0)
(-141.64 -55.6436 0)
(-131.848 -49.1812 0)
(-121.612 -32.2016 0)
(-112.929 -9.36755 0)
(-130.379 14.5002 0)
(-168.671 42.8225 0)
(-243.474 80.916 0)
(-334.66 123.419 0)
(-419.669 130.056 0)
(-426.482 91.8632 0)
(-398.842 37.6541 0)
(-367.675 -13.9151 0)
(-319.326 -49.3019 0)
(-269.6 -72.7365 0)
(-227.061 -91.624 0)
(-163.801 -102.415 0)
(-122.906 -68.0258 0)
(-89.8646 -31.9386 0)
(-70.0216 -15.5252 0)
(-72.9276 -0.887659 0)
(-96.9856 14.0347 0)
(-110.414 18.8592 0)
(-102.5 12.9013 0)
(-64.841 -2.83212 0)
(-28.2889 68.1896 0)
(32.6485 56.1893 0)
(38.606 69.5987 0)
(67.9413 72.2827 0)
(124.788 68.8952 0)
(183.595 62.9721 0)
(212.598 51.867 0)
(236.299 36.8734 0)
(293.113 25.1724 0)
(348.255 39.8323 0)
(330.477 110.856 0)
(302.399 195.275 0)
(395.189 39.2156 0)
(505.58 81.7774 0)
(588.068 75.6331 0)
(345.89 192.771 0)
(42.9787 273.846 0)
(196.487 172.143 0)
(213.306 61.7019 0)
(240.595 32.6191 0)
(140.673 13.7384 0)
(-45.6446 -24.3425 0)
(-177.614 -56.3965 0)
(-430.555 -41.7713 0)
(-121.951 -107.578 0)
(141.469 -155.107 0)
(238.921 7.15312 0)
(196.361 338.442 0)
(-1.08341 369.051 0)
(775.907 -94.3203 0)
(1037.65 -240.844 0)
(-299.411 288.129 0)
(827.027 295.578 0)
(119.009 367.601 0)
(468.234 17.0763 0)
(164.351 -16.5194 0)
(109.776 125.636 0)
(357.618 40.574 0)
(82.8933 24.6872 0)
(-293.464 -254.788 0)
(185.522 -659.424 0)
(63.1401 -175.514 0)
(179.054 -70.749 0)
(214.338 -36.3126 0)
(87.4014 -63.4652 0)
(-86.3251 -78.1227 0)
(238.259 26.925 0)
(-200.142 -99.641 0)
(203.357 -88.021 0)
(2.30931 -31.2247 0)
(87.6757 65.198 0)
(137.017 89.299 0)
(124.332 69.8433 0)
(7.96087 -1.39105 0)
(-99.7155 -63.6638 0)
(-173.766 -87.9767 0)
(-164.466 -101.432 0)
(-170.444 -93.0724 0)
(-177.616 -84.0101 0)
(-163.058 -88.5941 0)
(-170.78 -100.734 0)
(-149.131 -105.801 0)
(-153.788 -103.502 0)
(-154.882 -96.7315 0)
(-138.795 -82.5695 0)
(-117.617 -71.0016 0)
(-121.301 -61.742 0)
(-114.713 -52.4201 0)
(-94.6148 -44.6138 0)
(-94.8328 -38.0876 0)
(-84.5375 -34.8769 0)
(-77.2765 -30.8276 0)
(-94.7065 -29.0768 0)
(-109.641 -36.9756 0)
(-141.717 -49.2484 0)
(-170.639 -55.8291 0)
(-180.608 -55.0469 0)
(-186.064 -51.4653 0)
(-165.018 -34.5208 0)
(-165.193 -8.42494 0)
(-174.803 21.2065 0)