/*--------------------------------*- C++ -*----------------------------------*\
| =========                 |                                                 |
| \\      /  F ield         | foam-extend: Open Source CFD                    |
|  \\    /   O peration     | Version:     5.0                                |
|   \\  /    A nd           | Web:         http://www.foam-extend.org         |
|    \\/     M anipulation  |                                                 |
\*---------------------------------------------------------------------------*/
FoamFile
{
    version     2.0;
    format      ascii;
    class       volScalarField;
    location    "0.02";
    object      p;
}
// * * * * * * * * * * * * * * * * * * * * * * * * * * * * * * * * * * * * * //

dimensions      [1 -1 -2 0 0 0 0];

internalField   nonuniform List<scalar> 
4000
(
9032.2
8889.29
8820.33
8745.16
8656.22
8566.86
8479.76
8392.72
8304.85
8216.35
8127.44
8038.19
7948.63
7858.79
7768.72
7678.46
7588.05
7497.52
7406.89
7316.19
7225.44
7134.65
7043.83
6952.98
6862.13
6771.26
6680.38
6589.5
6498.62
6407.73
6316.84
6225.95
6135.06
6044.17
5953.28
5862.38
5771.49
5680.6
5589.71
5498.81
5407.92
5317.03
5226.14
5135.24
5044.35
4953.46
4862.57
4771.67
4680.78
4589.89
4498.99
4408.1
4317.21
4226.32
4135.42
4044.53
3953.64
3862.75
3771.85
3680.96
3590.07
3499.18
3408.28
3317.39
3226.5
3135.6
3044.71
2953.82
2862.93
2772.03
2681.14
2590.25
2499.36
2408.46
2317.57
2226.68
2135.79
2044.89
1954
1863.11
1772.22
1681.32
1590.43
1499.54
1408.65
1317.75
1226.86
1135.97
1045.08
954.189
863.297
772.405
681.524
590.66
499.749
408.691
317.91
228.062
136.096
44.191
9028.33
8886.98
8819.62
8744.55
8655.37
8566.15
8479.25
8392.32
8304.52
8216.08
8127.22
8038.02
7948.5
7858.69
7768.65
7678.41
7588.01
7497.49
7406.87
7316.17
7225.43
7134.64
7043.82
6952.98
6862.12
6771.26
6680.38
6589.5
6498.62
6407.73
6316.84
6225.95
6135.06
6044.17
5953.28
5862.38
5771.49
5680.6
5589.71
5498.81
5407.92
5317.03
5226.14
5135.24
5044.35
4953.46
4862.57
4771.67
4680.78
4589.89
4498.99
4408.1
4317.21
4226.32
4135.42
4044.53
3953.64
3862.75
3771.85
3680.96
3590.07
3499.18
3408.28
3317.39
3226.5
3135.6
3044.71
2953.82
2862.93
2772.03
2681.14
2590.25
2499.36
2408.46
2317.57
2226.68
2135.79
2044.89
1954
1863.11
1772.22
1681.32
1590.43
1499.54
1408.65
1317.75
1226.86
1135.97
1045.08
954.189
863.297
772.405
681.524
590.662
499.755
408.689
317.885
228.104
136.114
44.146
9027.87
8884.66
8819.29
8744.64
8654.99
8565.74
8479
8392.15
8304.38
8215.96
8127.13
8037.95
7948.45
7858.66
7768.62
7678.39
7587.99
7497.48
7406.86
7316.17
7225.42
7134.64
7043.82
6952.98
6862.12
6771.26
6680.38
6589.5
6498.62
6407.73
6316.84
6225.95
6135.06
6044.17
5953.28
5862.38
5771.49
5680.6
5589.71
5498.81
5407.92
5317.03
5226.14
5135.24
5044.35
4953.46
4862.57
4771.67
4680.78
4589.89
4498.99
4408.1
4317.21
4226.32
4135.42
4044.53
3953.64
3862.75
3771.85
3680.96
3590.07
3499.18
3408.28
3317.39
3226.5
3135.6
3044.71
2953.82
2862.93
2772.03
2681.14
2590.25
2499.36
2408.46
2317.57
2226.68
2135.79
2044.89
1954
1863.11
1772.22
1681.32
1590.43
1499.54
1408.65
1317.75
1226.86
1135.97
1045.08
954.189
863.297
772.405
681.523
590.664
499.762
408.678
317.853
228.181
136.107
44.0414
9030.46
8883.47
8819.83
8745.59
8655.27
8565.84
8479.16
8392.32
8304.51
8216.07
8127.22
8038.03
7948.51
7858.7
7768.66
7678.42
7588.02
7497.49
7406.87
7316.18
7225.43
7134.64
7043.82
6952.98
6862.12
6771.26
6680.38
6589.5
6498.62
6407.73
6316.84
6225.95
6135.06
6044.17
5953.28
5862.38
5771.49
5680.6
5589.71
5498.81
5407.92
5317.03
5226.14
5135.24
5044.35
4953.46
4862.57
4771.67
4680.78
4589.89
4498.99
4408.1
4317.21
4226.32
4135.42
4044.53
3953.64
3862.75
3771.85
3680.96
3590.07
3499.18
3408.28
3317.39
3226.5
3135.6
3044.71
2953.82
2862.93
2772.03
2681.14
2590.25
2499.36
2408.46
2317.57
2226.68
2135.79
2044.89
1954
1863.11
1772.22
1681.32
1590.43
1499.54
1408.65
1317.75
1226.86
1135.97
1045.08
954.189
863.297
772.405
681.522
590.666
499.768
408.663
317.817
228.266
136.041
43.8712
9035.15
8883.64
8821.45
8747.48
8656.28
8566.51
8479.8
8392.88
8304.96
8216.42
8127.5
8038.25
7948.69
7858.84
7768.76
7678.5
7588.08
7497.54
7406.9
7316.2
7225.45
7134.65
7043.83
6952.99
6862.13
6771.26
6680.38
6589.5
6498.62
6407.73
6316.84
6225.95
6135.06
6044.17
5953.28
5862.38
5771.49
5680.6
5589.71
5498.81
5407.92
5317.03
5226.14
5135.24
5044.35
4953.46
4862.57
4771.67
4680.78
4589.89
4498.99
4408.1
4317.21
4226.32
4135.42
4044.53
3953.64
3862.75
3771.85
3680.96
3590.07
3499.18
3408.28
3317.39
3226.5
3135.6
3044.71
2953.82
2862.93
2772.03
2681.14
2590.25
2499.36
2408.46
2317.57
2226.68
2135.79
2044.89
1954
1863.11
1772.22
1681.32
1590.43
1499.54
1408.65
1317.75
1226.86
1135.97
1045.08
954.189
863.297
772.404
681.521
590.667
499.774
408.645
317.777
228.347
135.92
43.6484
9041.04
8885.03
8824.06
8750.2
8657.97
8567.73
8480.88
8393.8
8305.7
8217.01
8127.97
8038.62
7948.97
7859.06
7768.93
7678.62
7588.17
7497.6
7406.95
7316.24
7225.47
7134.67
7043.84
6953
6862.14
6771.26
6680.39
6589.5
6498.62
6407.73
6316.84
6225.95
6135.06
6044.17
5953.28
5862.38
5771.49
5680.6
5589.71
5498.81
5407.92
5317.03
5226.14
5135.24
5044.35
4953.46
4862.57
4771.67
4680.78
4589.89
4498.99
4408.1
4317.21
4226.32
4135.42
4044.53
3953.64
3862.75
3771.85
3680.96
3590.07
3499.18
3408.28
3317.39
3226.5
3135.6
3044.71
2953.82
2862.93
2772.03
2681.14
2590.25
2499.36
2408.46
2317.57
2226.68
2135.79
2044.89
1954
1863.11
1772.22
1681.32
1590.43
1499.54
1408.65
1317.75
1226.86
1135.97
1045.08
954.189
863.296
772.402
681.519
590.668
499.778
408.626
317.738
228.419
135.797
43.4315
9047.39
8887.29
8827.39
8753.54
8660.21
8569.43
8482.37
8395.06
8306.7
8217.8
8128.6
8039.11
7949.36
7859.36
7769.15
7678.79
7588.29
7497.69
7407.02
7316.28
7225.51
7134.69
7043.86
6953.01
6862.14
6771.27
6680.39
6589.51
6498.62
6407.73
6316.84
6225.95
6135.06
6044.17
5953.28
5862.38
5771.49
5680.6
5589.71
5498.81
5407.92
5317.03
5226.14
5135.24
5044.35
4953.46
4862.57
4771.67
4680.78
4589.89
4498.99
4408.1
4317.21
4226.32
4135.42
4044.53
3953.64
3862.75
3771.85
3680.96
3590.07
3499.18
3408.28
3317.39
3226.5
3135.6
3044.71
2953.82
2862.93
2772.03
2681.14
2590.25
2499.36
2408.46
2317.57
2226.68
2135.79
2044.89
1954
1863.11
1772.22
1681.32
1590.43
1499.54
1408.65
1317.75
1226.86
1135.97
1045.08
954.188
863.295
772.4
681.516
590.669
499.782
408.607
317.7
228.482
135.697
43.2492
9053.61
8890.07
8831.13
8757.27
8662.87
8571.5
8484.17
8396.58
8307.93
8218.78
8129.37
8039.72
7949.83
7859.71
7769.42
7678.99
7588.44
7497.8
7407.1
7316.34
7225.55
7134.72
7043.88
6953.02
6862.15
6771.28
6680.39
6589.51
6498.62
6407.73
6316.84
6225.95
6135.06
6044.17
5953.28
5862.38
5771.49
5680.6
5589.71
5498.81
5407.92
5317.03
5226.14
5135.24
5044.35
4953.46
4862.57
4771.67
4680.78
4589.89
4498.99
4408.1
4317.21
4226.32
4135.42
4044.53
3953.64
3862.75
3771.85
3680.96
3590.07
3499.18
3408.28
3317.39
3226.5
3135.6
3044.71
2953.82
2862.93
2772.03
2681.14
2590.25
2499.36
2408.46
2317.57
2226.68
2135.79
2044.89
1954
1863.11
1772.22
1681.32
1590.43
1499.54
1408.65
1317.75
1226.86
1135.97
1045.08
954.187
863.294
772.399
681.514
590.669
499.785
408.587
317.667
228.535
135.619
43.1013
9059.3
8893.03
8835.01
8761.17
8665.78
8573.83
8486.2
8398.3
8309.33
8219.9
8130.26
8040.41
7950.36
7860.12
7769.73
7679.22
7588.61
7497.93
7407.19
7316.4
7225.59
7134.75
7043.9
6953.04
6862.16
6771.28
6680.4
6589.51
6498.62
6407.73
6316.84
6225.95
6135.06
6044.17
5953.28
5862.38
5771.49
5680.6
5589.71
5498.81
5407.92
5317.03
5226.14
5135.24
5044.35
4953.46
4862.57
4771.67
4680.78
4589.89
4498.99
4408.1
4317.21
4226.32
4135.42
4044.53
3953.64
3862.75
3771.85
3680.96
3590.07
3499.18
3408.28
3317.39
3226.5
3135.6
3044.71
2953.82
2862.93
2772.03
2681.14
2590.25
2499.36
2408.46
2317.57
2226.68
2135.79
2044.89
1954
1863.11
1772.22
1681.32
1590.43
1499.54
1408.65
1317.75
1226.86
1135.97
1045.08
954.186
863.293
772.396
681.511
590.67
499.787
408.569
317.638
228.578
135.558
42.9834
9064.26
8895.93
8838.79
8765.01
8668.8
8576.3
8488.38
8400.16
8310.85
8221.11
8131.22
8041.17
7950.95
7860.57
7770.07
7679.47
7588.8
7498.06
7407.28
7316.47
7225.64
7134.79
7043.93
6953.05
6862.17
6771.29
6680.41
6589.52
6498.63
6407.74
6316.85
6225.95
6135.06
6044.17
5953.28
5862.38
5771.49
5680.6
5589.71
5498.81
5407.92
5317.03
5226.14
5135.24
5044.35
4953.46
4862.57
4771.67
4680.78
4589.89
4498.99
4408.1
4317.21
4226.32
4135.42
4044.53
3953.64
3862.75
3771.85
3680.96
3590.07
3499.18
3408.28
3317.39
3226.5
3135.6
3044.71
2953.82
2862.93
2772.03
2681.14
2590.25
2499.36
2408.46
2317.57
2226.68
2135.79
2044.89
1954
1863.11
1772.22
1681.32
1590.43
1499.54
1408.65
1317.75
1226.86
1135.97
1045.08
954.185
863.291
772.394
681.509
590.67
499.788
408.552
317.614
228.613
135.51
42.8913
9068.41
8898.63
8842.3
8768.67
8671.78
8578.8
8490.6
8402.07
8312.43
8222.39
8132.23
8041.97
7951.56
7861.04
7770.42
7679.73
7588.99
7498.2
7407.39
7316.55
7225.69
7134.83
7043.95
6953.07
6862.19
6771.3
6680.41
6589.52
6498.63
6407.74
6316.85
6225.95
6135.06
6044.17
5953.28
5862.38
5771.49
5680.6
5589.71
5498.81
5407.92
5317.03
5226.14
5135.24
5044.35
4953.46
4862.57
4771.67
4680.78
4589.89
4498.99
4408.1
4317.21
4226.32
4135.42
4044.53
3953.64
3862.75
3771.85
3680.96
3590.07
3499.18
3408.28
3317.39
3226.5
3135.6
3044.71
2953.82
2862.93
2772.03
2681.14
2590.25
2499.36
2408.46
2317.57
2226.68
2135.79
2044.89
1954
1863.11
1772.22
1681.32
1590.43
1499.54
1408.64
1317.75
1226.86
1135.97
1045.08
954.184
863.29
772.392
681.506
590.67
499.789
408.536
317.595
228.64
135.471
42.8204
9071.8
8901.03
8845.45
8772.02
8674.62
8581.24
8492.8
8403.98
8314.02
8223.67
8133.26
8042.77
7952.19
7861.52
7770.78
7680
7589.19
7498.35
7407.49
7316.62
7225.74
7134.86
7043.98
6953.09
6862.2
6771.31
6680.42
6589.52
6498.63
6407.74
6316.85
6225.95
6135.06
6044.17
5953.28
5862.38
5771.49
5680.6
5589.71
5498.81
5407.92
5317.03
5226.14
5135.24
5044.35
4953.46
4862.57
4771.67
4680.78
4589.89
4498.99
4408.1
4317.21
4226.32
4135.42
4044.53
3953.64
3862.75
3771.85
3680.96
3590.07
3499.18
3408.28
3317.39
3226.5
3135.6
3044.71
2953.82
2862.93
2772.03
2681.14
2590.25
2499.36
2408.46
2317.57
2226.68
2135.79
2044.89
1954
1863.11
1772.21
1681.32
1590.43
1499.54
1408.64
1317.75
1226.86
1135.97
1045.07
954.183
863.288
772.39
681.504
590.67
499.789
408.523
317.581
228.66
135.44
42.7666
9074.49
8903.11
8848.2
8775.01
8677.24
8583.55
8494.89
8405.82
8315.56
8224.93
8134.27
8043.57
7952.8
7861.99
7771.14
7680.27
7589.38
7498.49
7407.59
7316.69
7225.8
7134.9
7044
6953.11
6862.21
6771.32
6680.42
6589.53
6498.63
6407.74
6316.85
6225.96
6135.06
6044.17
5953.28
5862.38
5771.49
5680.6
5589.71
5498.81
5407.92
5317.03
5226.14
5135.24
5044.35
4953.46
4862.57
4771.67
4680.78
4589.89
4498.99
4408.1
4317.21
4226.32
4135.42
4044.53
3953.64
3862.75
3771.85
3680.96
3590.07
3499.18
3408.28
3317.39
3226.5
3135.6
3044.71
2953.82
2862.93
2772.03
2681.14
2590.25
2499.36
2408.46
2317.57
2226.68
2135.79
2044.89
1954
1863.11
1772.21
1681.32
1590.43
1499.54
1408.64
1317.75
1226.86
1135.97
1045.07
954.182
863.287
772.388
681.502
590.67
499.789
408.511
317.569
228.676
135.414
42.7263
9076.59
8904.86
8850.52
8777.6
8679.58
8585.65
8496.83
8407.54
8317.01
8226.12
8135.22
8044.32
7953.39
7862.44
7771.48
7680.52
7589.56
7498.62
7407.69
7316.76
7225.85
7134.93
7044.03
6953.12
6862.22
6771.32
6680.43
6589.53
6498.64
6407.74
6316.85
6225.96
6135.06
6044.17
5953.28
5862.38
5771.49
5680.6
5589.71
5498.81
5407.92
5317.03
5226.14
5135.24
5044.35
4953.46
4862.57
4771.67
4680.78
4589.89
4498.99
4408.1
4317.21
4226.32
4135.42
4044.53
3953.64
3862.75
3771.85
3680.96
3590.07
3499.18
3408.28
3317.39
3226.5
3135.6
3044.71
2953.82
2862.93
2772.03
2681.14
2590.25
2499.36
2408.46
2317.57
2226.68
2135.79
2044.89
1954
1863.11
1772.21
1681.32
1590.43
1499.54
1408.64
1317.75
1226.86
1135.97
1045.07
954.181
863.286
772.386
681.501
590.67
499.789
408.502
317.561
228.687
135.393
42.6963
9078.2
8906.29
8852.45
8779.78
8681.62
8587.51
8498.56
8409.09
8318.33
8227.21
8136.1
8045.02
7953.93
7862.85
7771.79
7680.75
7589.74
7498.75
7407.78
7316.83
7225.89
7134.96
7044.05
6953.14
6862.23
6771.33
6680.43
6589.54
6498.64
6407.74
6316.85
6225.96
6135.06
6044.17
5953.28
5862.38
5771.49
5680.6
5589.71
5498.81
5407.92
5317.03
5226.14
5135.24
5044.35
4953.46
4862.57
4771.67
4680.78
4589.89
4498.99
4408.1
4317.21
4226.32
4135.42
4044.53
3953.64
3862.75
3771.85
3680.96
3590.07
3499.18
3408.28
3317.39
3226.5
3135.6
3044.71
2953.82
2862.93
2772.03
2681.14
2590.25
2499.36
2408.46
2317.57
2226.68
2135.79
2044.89
1954
1863.11
1772.21
1681.32
1590.43
1499.54
1408.64
1317.75
1226.86
1135.96
1045.07
954.18
863.284
772.385
681.499
590.671
499.788
408.494
317.555
228.695
135.376
42.6742
9079.4
8907.43
8853.99
8781.56
8683.32
8589.1
8500.05
8410.43
8319.49
8228.16
8136.88
8045.63
7954.41
7863.22
7772.06
7680.95
7589.89
7498.86
7407.86
7316.88
7225.93
7134.99
7044.07
6953.15
6862.24
6771.34
6680.44
6589.54
6498.64
6407.75
6316.85
6225.96
6135.06
6044.17
5953.28
5862.38
5771.49
5680.6
5589.71
5498.81
5407.92
5317.03
5226.14
5135.24
5044.35
4953.46
4862.57
4771.67
4680.78
4589.89
4498.99
4408.1
4317.21
4226.32
4135.42
4044.53
3953.64
3862.75
3771.85
3680.96
3590.07
3499.18
3408.28
3317.39
3226.5
3135.6
3044.71
2953.82
2862.93
2772.03
2681.14
2590.25
2499.36
2408.46
2317.57
2226.68
2135.79
2044.89
1954
1863.11
1772.21
1681.32
1590.43
1499.54
1408.64
1317.75
1226.86
1135.96
1045.07
954.179
863.283
772.384
681.498
590.671
499.788
408.488
317.551
228.7
135.363
42.6582
9080.27
8908.3
8855.19
8782.96
8684.68
8590.38
8501.27
8411.54
8320.44
8228.96
8137.52
8046.14
7954.81
7863.52
7772.29
7681.13
7590.01
7498.95
7407.92
7316.93
7225.96
7135.02
7044.08
6953.16
6862.25
6771.34
6680.44
6589.54
6498.64
6407.75
6316.85
6225.96
6135.06
6044.17
5953.28
5862.38
5771.49
5680.6
5589.71
5498.81
5407.92
5317.03
5226.14
5135.24
5044.35
4953.46
4862.57
4771.67
4680.78
4589.89
4498.99
4408.1
4317.21
4226.32
4135.42
4044.53
3953.64
3862.75
3771.85
3680.96
3590.07
3499.18
3408.28
3317.39
3226.5
3135.6
3044.71
2953.82
2862.93
2772.03
2681.14
2590.25
2499.36
2408.46
2317.57
2226.68
2135.79
2044.89
1954
1863.11
1772.21
1681.32
1590.43
1499.54
1408.64
1317.75
1226.86
1135.96
1045.07
954.178
863.283
772.383
681.498
590.671
499.788
408.483
317.548
228.704
135.352
42.6468
9080.88
8908.94
8856.05
8783.99
8685.69
8591.36
8502.21
8412.39
8321.18
8229.58
8138.02
8046.54
7955.12
7863.76
7772.47
7681.26
7590.11
7499.02
7407.98
7316.97
7225.99
7135.03
7044.1
6953.17
6862.26
6771.35
6680.44
6589.54
6498.64
6407.75
6316.85
6225.96
6135.06
6044.17
5953.28
5862.39
5771.49
5680.6
5589.71
5498.81
5407.92
5317.03
5226.14
5135.24
5044.35
4953.46
4862.57
4771.67
4680.78
4589.89
4498.99
4408.1
4317.21
4226.32
4135.42
4044.53
3953.64
3862.75
3771.85
3680.96
3590.07
3499.18
3408.28
3317.39
3226.5
3135.6
3044.71
2953.82
2862.93
2772.03
2681.14
2590.25
2499.36
2408.46
2317.57
2226.68
2135.79
2044.89
1954
1863.11
1772.21
1681.32
1590.43
1499.54
1408.64
1317.75
1226.86
1135.96
1045.07
954.178
863.282
772.382
681.497
590.672
499.788
408.479
317.546
228.707
135.344
42.639
9081.25
8909.35
8856.62
8784.66
8686.37
8592.01
8502.83
8412.97
8321.68
8229.99
8138.36
8046.82
7955.33
7863.92
7772.6
7681.35
7590.18
7499.07
7408.01
7316.99
7226.01
7135.05
7044.11
6953.18
6862.26
6771.35
6680.44
6589.54
6498.65
6407.75
6316.85
6225.96
6135.06
6044.17
5953.28
5862.39
5771.49
5680.6
5589.71
5498.81
5407.92
5317.03
5226.14
5135.24
5044.35
4953.46
4862.57
4771.67
4680.78
4589.89
4498.99
4408.1
4317.21
4226.32
4135.42
4044.53
3953.64
3862.75
3771.85
3680.96
3590.07
3499.18
3408.28
3317.39
3226.5
3135.6
3044.71
2953.82
2862.93
2772.03
2681.14
2590.25
2499.36
2408.46
2317.57
2226.68
2135.79
2044.89
1954
1863.11
1772.21
1681.32
1590.43
1499.54
1408.64
1317.75
1226.86
1135.96
1045.07
954.177
863.281
772.381
681.497
590.672
499.788
408.477
317.544
228.708
135.339
42.6342
9081.43
8909.55
8856.9
8785
8686.71
8592.34
8503.15
8413.26
8321.94
8230.21
8138.54
8046.95
7955.44
7864.01
7772.66
7681.4
7590.21
7499.09
7408.03
7317.01
7226.02
7135.05
7044.11
6953.18
6862.26
6771.35
6680.45
6589.54
6498.65
6407.75
6316.85
6225.96
6135.06
6044.17
5953.28
5862.39
5771.49
5680.6
5589.71
5498.81
5407.92
5317.03
5226.14
5135.24
5044.35
4953.46
4862.57
4771.67
4680.78
4589.89
4498.99
4408.1
4317.21
4226.32
4135.42
4044.53
3953.64
3862.75
3771.85
3680.96
3590.07
3499.18
3408.28
3317.39
3226.5
3135.6
3044.71
2953.82
2862.93
2772.03
2681.14
2590.25
2499.36
2408.46
2317.57
2226.68
2135.79
2044.89
1954
1863.11
1772.21
1681.32
1590.43
1499.54
1408.64
1317.75
1226.86
1135.96
1045.07
954.177
863.281
772.381
681.496
590.672
499.787
408.476
317.544
228.709
135.337
42.6319
9081.43
8909.55
8856.9
8785
8686.71
8592.34
8503.15
8413.26
8321.94
8230.21
8138.54
8046.95
7955.44
7864.01
7772.66
7681.4
7590.21
7499.09
7408.03
7317.01
7226.02
7135.05
7044.11
6953.18
6862.26
6771.35
6680.45
6589.54
6498.65
6407.75
6316.85
6225.96
6135.06
6044.17
5953.28
5862.39
5771.49
5680.6
5589.71
5498.81
5407.92
5317.03
5226.14
5135.24
5044.35
4953.46
4862.57
4771.67
4680.78
4589.89
4498.99
4408.1
4317.21
4226.32
4135.42
4044.53
3953.64
3862.75
3771.85
3680.96
3590.07
3499.18
3408.28
3317.39
3226.5
3135.6
3044.71
2953.82
2862.93
2772.03
2681.14
2590.25
2499.36
2408.46
2317.57
2226.68
2135.79
2044.89
1954
1863.11
1772.21
1681.32
1590.43
1499.54
1408.64
1317.75
1226.86
1135.96
1045.07
954.177
863.281
772.381
681.496
590.672
499.787
408.476
317.544
228.709
135.337
42.6319
9081.25
8909.35
8856.62
8784.66
8686.37
8592.01
8502.83
8412.97
8321.68
8229.99
8138.36
8046.82
7955.33
7863.92
7772.6
7681.35
7590.18
7499.07
7408.01
7316.99
7226.01
7135.05
7044.11
6953.18
6862.26
6771.35
6680.44
6589.54
6498.65
6407.75
6316.85
6225.96
6135.06
6044.17
5953.28
5862.39
5771.49
5680.6
5589.71
5498.81
5407.92
5317.03
5226.14
5135.24
5044.35
4953.46
4862.57
4771.67
4680.78
4589.89
4498.99
4408.1
4317.21
4226.32
4135.42
4044.53
3953.64
3862.75
3771.85
3680.96
3590.07
3499.18
3408.28
3317.39
3226.5
3135.6
3044.71
2953.82
2862.93
2772.03
2681.14
2590.25
2499.36
2408.46
2317.57
2226.68
2135.79
2044.89
1954
1863.11
1772.21
1681.32
1590.43
1499.54
1408.64
1317.75
1226.86
1135.96
1045.07
954.177
863.281
772.381
681.497
590.672
499.788
408.477
317.544
228.708
135.339
42.6342
9080.88
8908.93
8856.05
8783.99
8685.69
8591.36
8502.21
8412.39
8321.18
8229.58
8138.02
8046.54
7955.12
7863.76
7772.47
7681.26
7590.11
7499.02
7407.98
7316.97
7225.99
7135.03
7044.1
6953.17
6862.26
6771.35
6680.44
6589.54
6498.64
6407.75
6316.85
6225.96
6135.06
6044.17
5953.28
5862.38
5771.49
5680.6
5589.71
5498.81
5407.92
5317.03
5226.14
5135.24
5044.35
4953.46
4862.57
4771.67
4680.78
4589.89
4498.99
4408.1
4317.21
4226.32
4135.42
4044.53
3953.64
3862.75
3771.85
3680.96
3590.07
3499.18
3408.28
3317.39
3226.5
3135.6
3044.71
2953.82
2862.93
2772.03
2681.14
2590.25
2499.36
2408.46
2317.57
2226.68
2135.79
2044.89
1954
1863.11
1772.21
1681.32
1590.43
1499.54
1408.64
1317.75
1226.86
1135.96
1045.07
954.178
863.282
772.382
681.497
590.671
499.788
408.479
317.546
228.707
135.344
42.639
9080.27
8908.3
8855.19
8782.96
8684.68
8590.38
8501.28
8411.54
8320.44
8228.96
8137.52
8046.14
7954.81
7863.52
7772.29
7681.13
7590.01
7498.95
7407.92
7316.93
7225.96
7135.02
7044.08
6953.16
6862.25
6771.34
6680.44
6589.54
6498.64
6407.75
6316.85
6225.96
6135.06
6044.17
5953.28
5862.38
5771.49
5680.6
5589.71
5498.81
5407.92
5317.03
5226.14
5135.24
5044.35
4953.46
4862.57
4771.67
4680.78
4589.89
4498.99
4408.1
4317.21
4226.32
4135.42
4044.53
3953.64
3862.75
3771.85
3680.96
3590.07
3499.18
3408.28
3317.39
3226.5
3135.6
3044.71
2953.82
2862.93
2772.03
2681.14
2590.25
2499.36
2408.46
2317.57
2226.68
2135.79
2044.89
1954
1863.11
1772.21
1681.32
1590.43
1499.54
1408.64
1317.75
1226.86
1135.96
1045.07
954.178
863.283
772.382
681.498
590.671
499.788
408.483
317.548
228.704
135.352
42.6468
9079.4
8907.43
8853.99
8781.56
8683.32
8589.1
8500.05
8410.43
8319.49
8228.16
8136.88
8045.63
7954.41
7863.22
7772.06
7680.95
7589.89
7498.86
7407.86
7316.88
7225.93
7134.99
7044.07
6953.15
6862.24
6771.34
6680.44
6589.54
6498.64
6407.75
6316.85
6225.96
6135.06
6044.17
5953.28
5862.38
5771.49
5680.6
5589.71
5498.81
5407.92
5317.03
5226.14
5135.24
5044.35
4953.46
4862.57
4771.67
4680.78
4589.89
4498.99
4408.1
4317.21
4226.32
4135.42
4044.53
3953.64
3862.75
3771.85
3680.96
3590.07
3499.18
3408.28
3317.39
3226.5
3135.6
3044.71
2953.82
2862.93
2772.03
2681.14
2590.25
2499.36
2408.46
2317.57
2226.68
2135.79
2044.89
1954
1863.11
1772.21
1681.32
1590.43
1499.54
1408.64
1317.75
1226.86
1135.96
1045.07
954.179
863.283
772.384
681.498
590.671
499.788
408.488
317.551
228.7
135.363
42.6582
9078.2
8906.29
8852.45
8779.78
8681.62
8587.51
8498.56
8409.09
8318.33
8227.21
8136.1
8045.02
7953.93
7862.85
7771.79
7680.75
7589.74
7498.75
7407.78
7316.83
7225.89
7134.96
7044.05
6953.14
6862.23
6771.33
6680.43
6589.54
6498.64
6407.74
6316.85
6225.96
6135.06
6044.17
5953.28
5862.38
5771.49
5680.6
5589.71
5498.81
5407.92
5317.03
5226.14
5135.24
5044.35
4953.46
4862.57
4771.67
4680.78
4589.89
4498.99
4408.1
4317.21
4226.32
4135.42
4044.53
3953.64
3862.75
3771.85
3680.96
3590.07
3499.18
3408.28
3317.39
3226.5
3135.6
3044.71
2953.82
2862.93
2772.03
2681.14
2590.25
2499.36
2408.46
2317.57
2226.68
2135.79
2044.89
1954
1863.11
1772.21
1681.32
1590.43
1499.54
1408.64
1317.75
1226.86
1135.96
1045.07
954.18
863.284
772.385
681.499
590.671
499.788
408.494
317.555
228.695
135.376
42.6742
9076.59
8904.86
8850.52
8777.6
8679.58
8585.65
8496.83
8407.54
8317.01
8226.12
8135.22
8044.32
7953.39
7862.44
7771.48
7680.52
7589.57
7498.62
7407.69
7316.76
7225.85
7134.93
7044.03
6953.12
6862.22
6771.32
6680.43
6589.53
6498.64
6407.74
6316.85
6225.96
6135.06
6044.17
5953.28
5862.38
5771.49
5680.6
5589.71
5498.81
5407.92
5317.03
5226.14
5135.24
5044.35
4953.46
4862.57
4771.67
4680.78
4589.89
4498.99
4408.1
4317.21
4226.32
4135.42
4044.53
3953.64
3862.75
3771.85
3680.96
3590.07
3499.18
3408.28
3317.39
3226.5
3135.6
3044.71
2953.82
2862.93
2772.03
2681.14
2590.25
2499.36
2408.46
2317.57
2226.68
2135.79
2044.89
1954
1863.11
1772.21
1681.32
1590.43
1499.54
1408.64
1317.75
1226.86
1135.97
1045.07
954.181
863.286
772.386
681.501
590.67
499.789
408.502
317.561
228.687
135.393
42.6963
9074.49
8903.11
8848.2
8775.01
8677.24
8583.55
8494.89
8405.82
8315.56
8224.93
8134.27
8043.57
7952.81
7861.99
7771.14
7680.27
7589.38
7498.49
7407.59
7316.69
7225.8
7134.9
7044
6953.11
6862.21
6771.32
6680.42
6589.53
6498.63
6407.74
6316.85
6225.96
6135.06
6044.17
5953.28
5862.38
5771.49
5680.6
5589.71
5498.81
5407.92
5317.03
5226.14
5135.24
5044.35
4953.46
4862.57
4771.67
4680.78
4589.89
4498.99
4408.1
4317.21
4226.32
4135.42
4044.53
3953.64
3862.75
3771.85
3680.96
3590.07
3499.18
3408.28
3317.39
3226.5
3135.6
3044.71
2953.82
2862.93
2772.03
2681.14
2590.25
2499.36
2408.46
2317.57
2226.68
2135.79
2044.89
1954
1863.11
1772.21
1681.32
1590.43
1499.54
1408.64
1317.75
1226.86
1135.97
1045.07
954.182
863.287
772.388
681.502
590.67
499.789
408.511
317.569
228.676
135.414
42.7263
9071.8
8901.03
8845.45
8772.02
8674.62
8581.24
8492.8
8403.98
8314.02
8223.67
8133.26
8042.77
7952.19
7861.52
7770.78
7680
7589.19
7498.35
7407.49
7316.62
7225.74
7134.86
7043.98
6953.09
6862.2
6771.31
6680.42
6589.52
6498.63
6407.74
6316.85
6225.95
6135.06
6044.17
5953.28
5862.38
5771.49
5680.6
5589.71
5498.81
5407.92
5317.03
5226.14
5135.24
5044.35
4953.46
4862.57
4771.67
4680.78
4589.89
4498.99
4408.1
4317.21
4226.32
4135.42
4044.53
3953.64
3862.75
3771.85
3680.96
3590.07
3499.18
3408.28
3317.39
3226.5
3135.6
3044.71
2953.82
2862.93
2772.03
2681.14
2590.25
2499.36
2408.46
2317.57
2226.68
2135.79
2044.89
1954
1863.11
1772.21
1681.32
1590.43
1499.54
1408.64
1317.75
1226.86
1135.97
1045.07
954.183
863.288
772.39
681.504
590.67
499.789
408.523
317.581
228.66
135.44
42.7666
9068.41
8898.63
8842.3
8768.67
8671.78
8578.8
8490.6
8402.07
8312.43
8222.39
8132.23
8041.97
7951.56
7861.04
7770.42
7679.73
7588.99
7498.2
7407.39
7316.55
7225.69
7134.83
7043.95
6953.07
6862.19
6771.3
6680.41
6589.52
6498.63
6407.74
6316.85
6225.95
6135.06
6044.17
5953.28
5862.38
5771.49
5680.6
5589.71
5498.81
5407.92
5317.03
5226.14
5135.24
5044.35
4953.46
4862.57
4771.67
4680.78
4589.89
4498.99
4408.1
4317.21
4226.32
4135.42
4044.53
3953.64
3862.75
3771.85
3680.96
3590.07
3499.18
3408.28
3317.39
3226.5
3135.6
3044.71
2953.82
2862.93
2772.03
2681.14
2590.25
2499.36
2408.46
2317.57
2226.68
2135.79
2044.89
1954
1863.11
1772.21
1681.32
1590.43
1499.54
1408.64
1317.75
1226.86
1135.97
1045.08
954.184
863.29
772.392
681.506
590.67
499.789
408.536
317.595
228.64
135.471
42.8204
9064.25
8895.93
8838.79
8765.01
8668.8
8576.3
8488.38
8400.16
8310.85
8221.11
8131.22
8041.17
7950.95
7860.57
7770.07
7679.47
7588.8
7498.06
7407.28
7316.47
7225.64
7134.79
7043.93
6953.05
6862.17
6771.29
6680.41
6589.52
6498.63
6407.74
6316.84
6225.95
6135.06
6044.17
5953.28
5862.38
5771.49
5680.6
5589.71
5498.81
5407.92
5317.03
5226.14
5135.24
5044.35
4953.46
4862.57
4771.67
4680.78
4589.89
4498.99
4408.1
4317.21
4226.32
4135.42
4044.53
3953.64
3862.75
3771.85
3680.96
3590.07
3499.18
3408.28
3317.39
3226.5
3135.6
3044.71
2953.82
2862.93
2772.03
2681.14
2590.25
2499.36
2408.46
2317.57
2226.68
2135.79
2044.89
1954
1863.11
1772.22
1681.32
1590.43
1499.54
1408.65
1317.75
1226.86
1135.97
1045.08
954.185
863.291
772.394
681.509
590.67
499.788
408.552
317.614
228.613
135.51
42.8913
9059.3
8893.02
8835.01
8761.16
8665.78
8573.83
8486.21
8398.3
8309.33
8219.9
8130.26
8040.41
7950.36
7860.12
7769.73
7679.22
7588.61
7497.93
7407.19
7316.41
7225.59
7134.75
7043.9
6953.04
6862.16
6771.28
6680.4
6589.51
6498.62
6407.73
6316.84
6225.95
6135.06
6044.17
5953.28
5862.38
5771.49
5680.6
5589.71
5498.81
5407.92
5317.03
5226.14
5135.24
5044.35
4953.46
4862.56
4771.67
4680.78
4589.89
4498.99
4408.1
4317.21
4226.32
4135.42
4044.53
3953.64
3862.75
3771.85
3680.96
3590.07
3499.18
3408.28
3317.39
3226.5
3135.6
3044.71
2953.82
2862.93
2772.03
2681.14
2590.25
2499.36
2408.46
2317.57
2226.68
2135.79
2044.89
1954
1863.11
1772.22
1681.32
1590.43
1499.54
1408.65
1317.75
1226.86
1135.97
1045.08
954.186
863.293
772.396
681.511
590.67
499.787
408.569
317.638
228.578
135.558
42.9834
9053.61
8890.07
8831.13
8757.27
8662.86
8571.5
8484.17
8396.58
8307.93
8218.78
8129.37
8039.72
7949.83
7859.72
7769.43
7678.99
7588.44
7497.8
7407.1
7316.34
7225.55
7134.72
7043.88
6953.02
6862.15
6771.28
6680.39
6589.51
6498.62
6407.73
6316.84
6225.95
6135.06
6044.17
5953.28
5862.38
5771.49
5680.6
5589.71
5498.81
5407.92
5317.03
5226.14
5135.24
5044.35
4953.46
4862.56
4771.67
4680.78
4589.89
4498.99
4408.1
4317.21
4226.32
4135.42
4044.53
3953.64
3862.75
3771.85
3680.96
3590.07
3499.18
3408.28
3317.39
3226.5
3135.6
3044.71
2953.82
2862.93
2772.03
2681.14
2590.25
2499.36
2408.46
2317.57
2226.68
2135.79
2044.89
1954
1863.11
1772.22
1681.32
1590.43
1499.54
1408.65
1317.75
1226.86
1135.97
1045.08
954.187
863.294
772.398
681.514
590.669
499.785
408.587
317.667
228.535
135.619
43.1012
9047.39
8887.29
8827.38
8753.54
8660.2
8569.43
8482.37
8395.06
8306.7
8217.8
8128.6
8039.11
7949.36
7859.36
7769.15
7678.79
7588.29
7497.69
7407.02
7316.28
7225.51
7134.69
7043.86
6953.01
6862.14
6771.27
6680.39
6589.51
6498.62
6407.73
6316.84
6225.95
6135.06
6044.17
5953.28
5862.38
5771.49
5680.6
5589.71
5498.81
5407.92
5317.03
5226.14
5135.24
5044.35
4953.46
4862.56
4771.67
4680.78
4589.89
4498.99
4408.1
4317.21
4226.32
4135.42
4044.53
3953.64
3862.75
3771.85
3680.96
3590.07
3499.18
3408.28
3317.39
3226.5
3135.6
3044.71
2953.82
2862.93
2772.03
2681.14
2590.25
2499.36
2408.46
2317.57
2226.68
2135.79
2044.89
1954
1863.11
1772.22
1681.32
1590.43
1499.54
1408.65
1317.75
1226.86
1135.97
1045.08
954.188
863.295
772.4
681.516
590.669
499.782
408.607
317.7
228.482
135.697
43.2492
9041.04
8885.03
8824.05
8750.19
8657.96
8567.73
8480.89
8393.81
8305.7
8217.01
8127.97
8038.62
7948.97
7859.06
7768.93
7678.62
7588.17
7497.6
7406.95
7316.24
7225.47
7134.67
7043.84
6953
6862.13
6771.26
6680.39
6589.5
6498.62
6407.73
6316.84
6225.95
6135.06
6044.17
5953.28
5862.38
5771.49
5680.6
5589.71
5498.81
5407.92
5317.03
5226.14
5135.24
5044.35
4953.46
4862.56
4771.67
4680.78
4589.89
4498.99
4408.1
4317.21
4226.32
4135.42
4044.53
3953.64
3862.75
3771.85
3680.96
3590.07
3499.18
3408.28
3317.39
3226.5
3135.6
3044.71
2953.82
2862.93
2772.03
2681.14
2590.25
2499.36
2408.46
2317.57
2226.68
2135.79
2044.89
1954
1863.11
1772.22
1681.32
1590.43
1499.54
1408.65
1317.75
1226.86
1135.97
1045.08
954.188
863.296
772.402
681.519
590.668
499.778
408.626
317.738
228.419
135.797
43.4315
9035.15
8883.64
8821.45
8747.48
8656.28
8566.51
8479.8
8392.88
8304.96
8216.42
8127.5
8038.25
7948.69
7858.84
7768.76
7678.5
7588.08
7497.54
7406.9
7316.2
7225.45
7134.65
7043.83
6952.99
6862.13
6771.26
6680.38
6589.5
6498.62
6407.73
6316.84
6225.95
6135.06
6044.17
5953.28
5862.38
5771.49
5680.6
5589.71
5498.81
5407.92
5317.03
5226.14
5135.24
5044.35
4953.46
4862.56
4771.67
4680.78
4589.89
4498.99
4408.1
4317.21
4226.32
4135.42
4044.53
3953.64
3862.75
3771.85
3680.96
3590.07
3499.18
3408.28
3317.39
3226.5
3135.6
3044.71
2953.82
2862.93
2772.03
2681.14
2590.25
2499.36
2408.46
2317.57
2226.68
2135.79
2044.89
1954
1863.11
1772.22
1681.32
1590.43
1499.54
1408.65
1317.75
1226.86
1135.97
1045.08
954.189
863.297
772.403
681.521
590.667
499.774
408.645
317.777
228.347
135.92
43.6484
9030.46
8883.47
8819.82
8745.59
8655.26
8565.84
8479.17
8392.32
8304.51
8216.07
8127.22
8038.03
7948.51
7858.71
7768.66
7678.42
7588.02
7497.49
7406.87
7316.18
7225.43
7134.64
7043.82
6952.98
6862.12
6771.26
6680.38
6589.5
6498.62
6407.73
6316.84
6225.95
6135.06
6044.17
5953.28
5862.38
5771.49
5680.6
5589.71
5498.81
5407.92
5317.03
5226.14
5135.24
5044.35
4953.46
4862.56
4771.67
4680.78
4589.89
4498.99
4408.1
4317.21
4226.32
4135.42
4044.53
3953.64
3862.75
3771.85
3680.96
3590.07
3499.18
3408.28
3317.39
3226.5
3135.6
3044.71
2953.82
2862.93
2772.03
2681.14
2590.25
2499.36
2408.46
2317.57
2226.68
2135.79
2044.89
1954
1863.11
1772.22
1681.32
1590.43
1499.54
1408.65
1317.75
1226.86
1135.97
1045.08
954.189
863.297
772.405
681.522
590.666
499.768
408.663
317.817