/*--------------------------------*- C++ -*----------------------------------*\
| =========                 |                                                 |
| \\      /  F ield         | foam-extend: Open Source CFD                    |
|  \\    /   O peration     | Version:     5.0                                |
|   \\  /    A nd           | Web:         http://www.foam-extend.org         |
|    \\/     M anipulation  |                                                 |
\*---------------------------------------------------------------------------*/
FoamFile
{
    version     2.0;
    format      ascii;
    class       volScalarField;
    location    "0.02";
    object      pd;
}
// * * * * * * * * * * * * * * * * * * * * * * * * * * * * * * * * * * * * * //

dimensions      [1 -1 -2 0 0 0 0];

internalField   nonuniform List<scalar> 
4000
(
9032.69
8889.78
8820.82
8745.65
8656.71
8567.35
8480.25
8393.21
8305.34
8216.84
8127.93
8038.68
7949.12
7859.29
7769.22
7678.95
7588.54
7498.01
7407.38
7316.68
7225.93
7135.14
7044.32
6953.47
6862.62
6771.75
6680.87
6589.99
6499.11
6408.22
6317.33
6226.44
6135.55
6044.66
5953.77
5862.87
5771.98
5681.09
5590.2
5499.3
5408.41
5317.52
5226.63
5135.73
5044.84
4953.95
4863.06
4772.16
4681.27
4590.38
4499.49
4408.59
4317.7
4226.81
4135.91
4045.02
3954.13
3863.24
3772.34
3681.45
3590.56
3499.67
3408.77
3317.88
3226.99
3136.1
3045.2
2954.31
2863.42
2772.52
2681.63
2590.74
2499.85
2408.95
2318.06
2227.17
2136.28
2045.38
1954.49
1863.6
1772.71
1681.81
1590.92
1500.03
1409.14
1318.25
1227.35
1136.46
1045.57
954.679
863.787
772.896
682.015
591.151
500.239
409.181
318.4
228.553
136.587
44.6815
9028.82
8887.47
8820.11
8745.04
8655.86
8566.64
8479.74
8392.81
8305.01
8216.57
8127.71
8038.51
7948.99
7859.18
7769.14
7678.9
7588.5
7497.98
7407.36
7316.66
7225.92
7135.13
7044.31
6953.47
6862.61
6771.75
6680.87
6589.99
6499.11
6408.22
6317.33
6226.44
6135.55
6044.66
5953.77
5862.87
5771.98
5681.09
5590.2
5499.3
5408.41
5317.52
5226.63
5135.73
5044.84
4953.95
4863.06
4772.16
4681.27
4590.38
4499.49
4408.59
4317.7
4226.81
4135.91
4045.02
3954.13
3863.24
3772.34
3681.45
3590.56
3499.67
3408.77
3317.88
3226.99
3136.1
3045.2
2954.31
2863.42
2772.52
2681.63
2590.74
2499.85
2408.95
2318.06
2227.17
2136.28
2045.38
1954.49
1863.6
1772.71
1681.81
1590.92
1500.03
1409.14
1318.25
1227.35
1136.46
1045.57
954.68
863.788
772.896
682.014
591.152
500.246
409.179
318.376
228.595
136.605
44.6365
9028.36
8885.16
8819.78
8745.13
8655.48
8566.23
8479.49
8392.64
8304.87
8216.45
8127.62
8038.44
7948.94
7859.15
7769.11
7678.88
7588.48
7497.97
7407.35
7316.66
7225.91
7135.13
7044.31
6953.47
6862.61
6771.75
6680.87
6589.99
6499.11
6408.22
6317.33
6226.44
6135.55
6044.66
5953.77
5862.87
5771.98
5681.09
5590.2
5499.3
5408.41
5317.52
5226.63
5135.73
5044.84
4953.95
4863.06
4772.16
4681.27
4590.38
4499.49
4408.59
4317.7
4226.81
4135.91
4045.02
3954.13
3863.24
3772.34
3681.45
3590.56
3499.67
3408.77
3317.88
3226.99
3136.1
3045.2
2954.31
2863.42
2772.52
2681.63
2590.74
2499.85
2408.95
2318.06
2227.17
2136.28
2045.38
1954.49
1863.6
1772.71
1681.81
1590.92
1500.03
1409.14
1318.25
1227.35
1136.46
1045.57
954.68
863.788
772.896
682.014
591.154
500.253
409.168
318.344
228.672
136.597
44.5319
9030.95
8883.96
8820.32
8746.08
8655.76
8566.33
8479.65
8392.81
8305
8216.56
8127.71
8038.52
7949
7859.2
7769.15
7678.91
7588.51
7497.98
7407.36
7316.67
7225.92
7135.13
7044.31
6953.47
6862.62
6771.75
6680.87
6589.99
6499.11
6408.22
6317.33
6226.44
6135.55
6044.66
5953.77
5862.87
5771.98
5681.09
5590.2
5499.3
5408.41
5317.52
5226.63
5135.73
5044.84
4953.95
4863.06
4772.16
4681.27
4590.38
4499.49
4408.59
4317.7
4226.81
4135.91
4045.02
3954.13
3863.24
3772.34
3681.45
3590.56
3499.67
3408.77
3317.88
3226.99
3136.1
3045.2
2954.31
2863.42
2772.52
2681.63
2590.74
2499.85
2408.95
2318.06
2227.17
2136.28
2045.38
1954.49
1863.6
1772.71
1681.81
1590.92
1500.03
1409.14
1318.25
1227.35
1136.46
1045.57
954.68
863.788
772.895
682.013
591.156
500.259
409.153
318.307
228.756
136.532
44.3617
9035.64
8884.13
8821.94
8747.97
8656.77
8567
8480.29
8393.37
8305.45
8216.91
8127.99
8038.74
7949.18
7859.33
7769.25
7678.99
7588.57
7498.03
7407.39
7316.69
7225.94
7135.14
7044.32
6953.48
6862.62
6771.75
6680.87
6589.99
6499.11
6408.22
6317.33
6226.44
6135.55
6044.66
5953.77
5862.87
5771.98
5681.09
5590.2
5499.3
5408.41
5317.52
5226.63
5135.73
5044.84
4953.95
4863.06
4772.16
4681.27
4590.38
4499.49
4408.59
4317.7
4226.81
4135.91
4045.02
3954.13
3863.24
3772.34
3681.45
3590.56
3499.67
3408.77
3317.88
3226.99
3136.1
3045.2
2954.31
2863.42
2772.52
2681.63
2590.74
2499.85
2408.95
2318.06
2227.17
2136.28
2045.38
1954.49
1863.6
1772.71
1681.81
1590.92
1500.03
1409.14
1318.25
1227.35
1136.46
1045.57
954.679
863.787
772.894
682.011
591.158
500.264
409.136
318.268
228.837
136.411
44.1389
9041.53
8885.52
8824.55
8750.69
8658.46
8568.23
8481.37
8394.3
8306.19
8217.5
8128.46
8039.11
7949.46
7859.55
7769.42
7679.11
7588.66
7498.09
7407.44
7316.73
7225.96
7135.16
7044.33
6953.49
6862.63
6771.75
6680.88
6590
6499.11
6408.22
6317.33
6226.44
6135.55
6044.66
5953.77
5862.87
5771.98
5681.09
5590.2
5499.3
5408.41
5317.52
5226.63
5135.73
5044.84
4953.95
4863.06
4772.16
4681.27
4590.38
4499.49
4408.59
4317.7
4226.81
4135.91
4045.02
3954.13
3863.24
3772.34
3681.45
3590.56
3499.67
3408.77
3317.88
3226.99
3136.1
3045.2
2954.31
2863.42
2772.52
2681.63
2590.74
2499.85
2408.95
2318.06
2227.17
2136.28
2045.38
1954.49
1863.6
1772.71
1681.81
1590.92
1500.03
1409.14
1318.25
1227.35
1136.46
1045.57
954.679
863.787
772.893
682.009
591.159
500.269
409.117
318.228
228.909
136.287
43.922
9047.88
8887.78
8827.88
8754.03
8660.7
8569.92
8482.86
8395.55
8307.2
8218.29
8129.09
8039.61
7949.85
7859.85
7769.64
7679.28
7588.78
7498.19
7407.51
7316.78
7226
7135.19
7044.35
6953.5
6862.63
6771.76
6680.88
6590
6499.11
6408.22
6317.33
6226.44
6135.55
6044.66
5953.77
5862.87
5771.98
5681.09
5590.2
5499.3
5408.41
5317.52
5226.63
5135.73
5044.84
4953.95
4863.06
4772.16
4681.27
4590.38
4499.49
4408.59
4317.7
4226.81
4135.91
4045.02
3954.13
3863.24
3772.34
3681.45
3590.56
3499.67
3408.77
3317.88
3226.99
3136.1
3045.2
2954.31
2863.42
2772.52
2681.63
2590.74
2499.85
2408.95
2318.06
2227.17
2136.28
2045.38
1954.49
1863.6
1772.71
1681.81
1590.92
1500.03
1409.14
1318.24
1227.35
1136.46
1045.57
954.678
863.786
772.891
682.007
591.159
500.273
409.097
318.191
228.972
136.188
43.7397
9054.1
8890.56
8831.62
8757.76
8663.36
8571.99
8484.66
8397.07
8308.42
8219.27
8129.86
8040.21
7950.32
7860.21
7769.92
7679.48
7588.93
7498.29
7407.59
7316.83
7226.04
7135.21
7044.37
6953.51
6862.64
6771.77
6680.89
6590
6499.11
6408.22
6317.33
6226.44
6135.55
6044.66
5953.77
5862.87
5771.98
5681.09
5590.2
5499.3
5408.41
5317.52
5226.63
5135.73
5044.84
4953.95
4863.06
4772.16
4681.27
4590.38
4499.49
4408.59
4317.7
4226.81
4135.91
4045.02
3954.13
3863.24
3772.34
3681.45
3590.56
3499.67
3408.77
3317.88
3226.99
3136.1
3045.2
2954.31
2863.42
2772.52
2681.63
2590.74
2499.85
2408.95
2318.06
2227.17
2136.28
2045.38
1954.49
1863.6
1772.71
1681.81
1590.92
1500.03
1409.14
1318.24
1227.35
1136.46
1045.57
954.677
863.784
772.889
682.004
591.16
500.275
409.078
318.157
229.025
136.11
43.5918
9059.79
8893.52
8835.5
8761.66
8666.27
8574.32
8486.69
8398.79
8309.82
8220.39
8130.75
8040.9
7950.85
7860.61
7770.22
7679.71
7589.1
7498.42
7407.68
7316.9
7226.08
7135.25
7044.39
6953.53
6862.65
6771.77
6680.89
6590
6499.12
6408.23
6317.33
6226.44
6135.55
6044.66
5953.77
5862.87
5771.98
5681.09
5590.2
5499.3
5408.41
5317.52
5226.63
5135.73
5044.84
4953.95
4863.06
4772.16
4681.27
4590.38
4499.49
4408.59
4317.7
4226.81
4135.91
4045.02
3954.13
3863.24
3772.34
3681.45
3590.56
3499.67
3408.77
3317.88
3226.99
3136.1
3045.2
2954.31
2863.42
2772.52
2681.63
2590.74
2499.85
2408.95
2318.06
2227.17
2136.28
2045.38
1954.49
1863.6
1772.71
1681.81
1590.92
1500.03
1409.14
1318.24
1227.35
1136.46
1045.57
954.677
863.783
772.887
682.002
591.16
500.277
409.059
318.128
229.069
136.049
43.4739
9064.75
8896.42
8839.28
8765.5
8669.29
8576.79
8488.87
8400.65
8311.34
8221.6
8131.71
8041.66
7951.44
7861.06
7770.56
7679.96
7589.29
7498.55
7407.77
7316.96
7226.13
7135.28
7044.42
6953.54
6862.67
6771.78
6680.9
6590.01
6499.12
6408.23
6317.34
6226.44
6135.55
6044.66
5953.77
5862.87
5771.98
5681.09
5590.2
5499.3
5408.41
5317.52
5226.63
5135.73
5044.84
4953.95
4863.06
4772.16
4681.27
4590.38
4499.49
4408.59
4317.7
4226.81
4135.91
4045.02
3954.13
3863.24
3772.34
3681.45
3590.56
3499.67
3408.77
3317.88
3226.99
3136.1
3045.2
2954.31
2863.42
2772.52
2681.63
2590.74
2499.85
2408.95
2318.06
2227.17
2136.28
2045.38
1954.49
1863.6
1772.71
1681.81
1590.92
1500.03
1409.14
1318.24
1227.35
1136.46
1045.57
954.675
863.782
772.885
681.999
591.16
500.278
409.042
318.105
229.103
136
43.3818
9068.9
8899.12
8842.79
8769.16
8672.27
8579.29
8491.09
8402.56
8312.92
8222.88
8132.72
8042.46
7952.05
7861.53
7770.91
7680.22
7589.48
7498.69
7407.88
7317.04
7226.18
7135.32
7044.44
6953.56
6862.68
6771.79
6680.9
6590.01
6499.12
6408.23
6317.34
6226.44
6135.55
6044.66
5953.77
5862.87
5771.98
5681.09
5590.2
5499.3
5408.41
5317.52
5226.63
5135.73
5044.84
4953.95
4863.06
4772.16
4681.27
4590.38
4499.49
4408.59
4317.7
4226.81
4135.91
4045.02
3954.13
3863.24
3772.34
3681.45
3590.56
3499.67
3408.77
3317.88
3226.99
3136.1
3045.2
2954.31
2863.42
2772.52
2681.63
2590.74
2499.85
2408.95
2318.06
2227.17
2136.28
2045.38
1954.49
1863.6
1772.71
1681.81
1590.92
1500.03
1409.14
1318.24
1227.35
1136.46
1045.57
954.674
863.78
772.883
681.997
591.16
500.279
409.027
318.086
229.13
135.962
43.3109
9072.29
8901.52
8845.94
8772.51
8675.11
8581.73
8493.29
8404.47
8314.51
8224.16
8133.75
8043.26
7952.68
7862.01
7771.27
7680.49
7589.68
7498.84
7407.98
7317.11
7226.23
7135.35
7044.47
6953.58
6862.69
6771.8
6680.91
6590.02
6499.12
6408.23
6317.34
6226.45
6135.55
6044.66
5953.77
5862.87
5771.98
5681.09
5590.2
5499.3
5408.41
5317.52
5226.63
5135.73
5044.84
4953.95
4863.06
4772.16
4681.27
4590.38
4499.49
4408.59
4317.7
4226.81
4135.91
4045.02
3954.13
3863.24
3772.34
3681.45
3590.56
3499.67
3408.77
3317.88
3226.99
3136.1
3045.2
2954.31
2863.42
2772.52
2681.63
2590.74
2499.85
2408.95
2318.06
2227.17
2136.28
2045.38
1954.49
1863.6
1772.71
1681.81
1590.92
1500.03
1409.13
1318.24
1227.35
1136.46
1045.57
954.673
863.779
772.881
681.995
591.16
500.279
409.013
318.071
229.151
135.93
43.2571
9074.98
8903.6
8848.69
8775.5
8677.73
8584.04
8495.38
8406.31
8316.05
8225.42
8134.76
8044.06
7953.3
7862.48
7771.63
7680.76
7589.87
7498.98
7408.08
7317.18
7226.29
7135.39
7044.49
6953.6
6862.7
6771.81
6680.91
6590.02
6499.13
6408.23
6317.34
6226.45
6135.55
6044.66
5953.77
5862.88
5771.98
5681.09
5590.2
5499.3
5408.41
5317.52
5226.63
5135.73
5044.84
4953.95
4863.06
4772.16
4681.27
4590.38
4499.49
4408.59
4317.7
4226.81
4135.91
4045.02
3954.13
3863.24
3772.34
3681.45
3590.56
3499.67
3408.77
3317.88
3226.99
3136.1
3045.2
2954.31
2863.42
2772.52
2681.63
2590.74
2499.85
2408.95
2318.06
2227.17
2136.28
2045.38
1954.49
1863.6
1772.71
1681.81
1590.92
1500.03
1409.13
1318.24
1227.35
1136.46
1045.56
954.672
863.777
772.879
681.993
591.161
500.279
409.002
318.06
229.166
135.905
43.2168
9077.08
8905.35
8851.01
8778.09
8680.07
8586.14
8497.32
8408.03
8317.5
8226.61
8135.72
8044.81
7953.88
7862.93
7771.97
7681.01
7590.06
7499.11
7408.18
7317.25
7226.34
7135.42
7044.52
6953.61
6862.71
6771.81
6680.92
6590.02
6499.13
6408.23
6317.34
6226.45
6135.55
6044.66
5953.77
5862.88
5771.98
5681.09
5590.2
5499.3
5408.41
5317.52
5226.63
5135.73
5044.84
4953.95
4863.06
4772.16
4681.27
4590.38
4499.49
4408.59
4317.7
4226.81
4135.91
4045.02
3954.13
3863.24
3772.34
3681.45
3590.56
3499.67
3408.77
3317.88
3226.99
3136.1
3045.2
2954.31
2863.42
2772.52
2681.63
2590.74
2499.85
2408.95
2318.06
2227.17
2136.28
2045.38
1954.49
1863.6
1772.71
1681.81
1590.92
1500.03
1409.13
1318.24
1227.35
1136.46
1045.56
954.671
863.776
772.877
681.991
591.161
500.279
408.992
318.052
229.177
135.884
43.1868
9078.69
8906.78
8852.94
8780.27
8682.11
8588
8499.05
8409.58
8318.82
8227.7
8136.59
8045.51
7954.42
7863.34
7772.28
7681.24
7590.23
7499.24
7408.27
7317.32
7226.38
7135.46
7044.54
6953.63
6862.72
6771.82
6680.92
6590.03
6499.13
6408.24
6317.34
6226.45
6135.55
6044.66
5953.77
5862.88
5771.98
5681.09
5590.2
5499.3
5408.41
5317.52
5226.63
5135.73
5044.84
4953.95
4863.06
4772.16
4681.27
4590.38
4499.49
4408.59
4317.7
4226.81
4135.91
4045.02
3954.13
3863.24
3772.34
3681.45
3590.56
3499.67
3408.77
3317.88
3226.99
3136.1
3045.2
2954.31
2863.42
2772.52
2681.63
2590.74
2499.85
2408.95
2318.06
2227.17
2136.28
2045.38
1954.49
1863.6
1772.71
1681.81
1590.92
1500.03
1409.13
1318.24
1227.35
1136.46
1045.56
954.67
863.775
772.875
681.99
591.161
500.279
408.984
318.046
229.185
135.867
43.1647
9079.89
8907.92
8854.48
8782.05
8683.81
8589.59
8500.54
8410.92
8319.98
8228.65
8137.37
8046.12
7954.9
7863.71
7772.55
7681.44
7590.38
7499.35
7408.35
7317.37
7226.42
7135.48
7044.56
6953.64
6862.73
6771.83
6680.93
6590.03
6499.13
6408.24
6317.34
6226.45
6135.55
6044.66
5953.77
5862.88
5771.98
5681.09
5590.2
5499.3
5408.41
5317.52
5226.63
5135.73
5044.84
4953.95
4863.06
4772.16
4681.27
4590.38
4499.49
4408.59
4317.7
4226.81
4135.91
4045.02
3954.13
3863.24
3772.34
3681.45
3590.56
3499.67
3408.77
3317.88
3226.99
3136.1
3045.2
2954.31
2863.42
2772.52
2681.63
2590.74
2499.85
2408.95
2318.06
2227.17
2136.28
2045.38
1954.49
1863.6
1772.71
1681.81
1590.92
1500.03
1409.13
1318.24
1227.35
1136.45
1045.56
954.669
863.774
772.874
681.989
591.161
500.279
408.978
318.041
229.191
135.853
43.1487
9080.76
8908.79
8855.68
8783.45
8685.17
8590.87
8501.77
8412.03
8320.93
8229.45
8138.01
8046.64
7955.3
7864.01
7772.79
7681.62
7590.5
7499.44
7408.41
7317.42
7226.45
7135.51
7044.57
6953.65
6862.74
6771.83
6680.93
6590.03
6499.13
6408.24
6317.34
6226.45
6135.55
6044.66
5953.77
5862.88
5771.98
5681.09
5590.2
5499.3
5408.41
5317.52
5226.63
5135.73
5044.84
4953.95
4863.06
4772.16
4681.27
4590.38
4499.49
4408.59
4317.7
4226.81
4135.91
4045.02
3954.13
3863.24
3772.34
3681.45
3590.56
3499.67
3408.77
3317.88
3226.99
3136.1
3045.2
2954.31
2863.42
2772.52
2681.63
2590.74
2499.85
2408.95
2318.06
2227.17
2136.28
2045.38
1954.49
1863.6
1772.7
1681.81
1590.92
1500.03
1409.13
1318.24
1227.35
1136.45
1045.56
954.669
863.773
772.873
681.988
591.162
500.278
408.973
318.038
229.195
135.843
43.1373
9081.37
8909.43
8856.54
8784.48
8686.18
8591.85
8502.7
8412.88
8321.67
8230.07
8138.51
8047.03
7955.61
7864.25
7772.97
7681.75
7590.6
7499.51
7408.47
7317.46
7226.48
7135.53
7044.59
6953.66
6862.75
6771.84
6680.93
6590.03
6499.13
6408.24
6317.34
6226.45
6135.56
6044.66
5953.77
5862.88
5771.98
5681.09
5590.2
5499.3
5408.41
5317.52
5226.63
5135.73
5044.84
4953.95
4863.06
4772.16
4681.27
4590.38
4499.49
4408.59
4317.7
4226.81
4135.91
4045.02
3954.13
3863.24
3772.34
3681.45
3590.56
3499.67
3408.77
3317.88
3226.99
3136.1
3045.2
2954.31
2863.42
2772.52
2681.63
2590.74
2499.85
2408.95
2318.06
2227.17
2136.28
2045.38
1954.49
1863.6
1772.7
1681.81
1590.92
1500.03
1409.13
1318.24
1227.35
1136.45
1045.56
954.668
863.772
772.872
681.987
591.162
500.278
408.97
318.036
229.197
135.835
43.1295
9081.74
8909.84
8857.11
8785.15
8686.86
8592.5
8503.32
8413.46
8322.17
8230.49
8138.85
8047.31
7955.82
7864.41
7773.09
7681.84
7590.67
7499.56
7408.5
7317.48
7226.5
7135.54
7044.6
6953.67
6862.75
6771.84
6680.94
6590.03
6499.14
6408.24
6317.34
6226.45
6135.56
6044.66
5953.77
5862.88
5771.98
5681.09
5590.2
5499.3
5408.41
5317.52
5226.63
5135.73
5044.84
4953.95
4863.06
4772.16
4681.27
4590.38
4499.49
4408.59
4317.7
4226.81
4135.91
4045.02
3954.13
3863.24
3772.34
3681.45
3590.56
3499.67
3408.77
3317.88
3226.99
3136.1
3045.2
2954.31
2863.42
2772.52
2681.63
2590.74
2499.85
2408.95
2318.06
2227.17
2136.28
2045.38
1954.49
1863.6
1772.7
1681.81
1590.92
1500.03
1409.13
1318.24
1227.35
1136.45
1045.56
954.668
863.772
772.872
681.987
591.162
500.278
408.967
318.035
229.198
135.83
43.1247
9081.92
8910.04
8857.39
8785.49
8687.2
8592.83
8503.64
8413.75
8322.43
8230.7
8139.03
8047.44
7955.93
7864.5
7773.15
7681.89
7590.7
7499.58
7408.52
7317.5
7226.51
7135.54
7044.6
6953.67
6862.75
6771.84
6680.94
6590.03
6499.14
6408.24
6317.34
6226.45
6135.56
6044.66
5953.77
5862.88
5771.98
5681.09
5590.2
5499.3
5408.41
5317.52
5226.63
5135.73
5044.84
4953.95
4863.06
4772.16
4681.27
4590.38
4499.49
4408.59
4317.7
4226.81
4135.91
4045.02
3954.13
3863.24
3772.34
3681.45
3590.56
3499.67
3408.77
3317.88
3226.99
3136.1
3045.2
2954.31
2863.42
2772.52
2681.63
2590.74
2499.85
2408.95
2318.06
2227.17
2136.28
2045.38
1954.49
1863.6
1772.7
1681.81
1590.92
1500.03
1409.13
1318.24
1227.35
1136.45
1045.56
954.668
863.772
772.871
681.987
591.162
500.278
408.966
318.034
229.199
135.827
43.1224
9081.92
8910.04
8857.39
8785.49
8687.2
8592.83
8503.64
8413.75
8322.43
8230.7
8139.03
8047.44
7955.93
7864.5
7773.15
7681.89
7590.7
7499.58
7408.52
7317.5
7226.51
7135.54
7044.6
6953.67
6862.75
6771.84
6680.94
6590.03
6499.14
6408.24
6317.34
6226.45
6135.56
6044.66
5953.77
5862.88
5771.98
5681.09
5590.2
5499.3
5408.41
5317.52
5226.63
5135.73
5044.84
4953.95
4863.06
4772.16
4681.27
4590.38
4499.49
4408.59
4317.7
4226.81
4135.91
4045.02
3954.13
3863.24
3772.34
3681.45
3590.56
3499.67
3408.77
3317.88
3226.99
3136.1
3045.2
2954.31
2863.42
2772.52
2681.63
2590.74
2499.85
2408.95
2318.06
2227.17
2136.28
2045.38
1954.49
1863.6
1772.7
1681.81
1590.92
1500.03
1409.13
1318.24
1227.35
1136.45
1045.56
954.668
863.772
772.871
681.987
591.162
500.278
408.966
318.034
229.199
135.827
43.1224
9081.74
8909.84
8857.11
8785.15
8686.86
8592.5
8503.32
8413.46
8322.17
8230.49
8138.85
8047.31
7955.82
7864.41
7773.09
7681.84
7590.67
7499.56
7408.5
7317.48
7226.5
7135.54
7044.6
6953.67
6862.75
6771.84
6680.94
6590.03
6499.14
6408.24
6317.34
6226.45
6135.56
6044.66
5953.77
5862.88
5771.98
5681.09
5590.2
5499.3
5408.41
5317.52
5226.63
5135.73
5044.84
4953.95
4863.06
4772.16
4681.27
4590.38
4499.49
4408.59
4317.7
4226.81
4135.91
4045.02
3954.13
3863.24
3772.34
3681.45
3590.56
3499.67
3408.77
3317.88
3226.99
3136.1
3045.2
2954.31
2863.42
2772.52
2681.63
2590.74
2499.85
2408.95
2318.06
2227.17
2136.28
2045.38
1954.49
1863.6
1772.7
1681.81
1590.92
1500.03
1409.13
1318.24
1227.35
1136.45
1045.56
954.668
863.772
772.872
681.987
591.162
500.278
408.967
318.035
229.198
135.83
43.1247
9081.37
8909.43
8856.54
8784.48
8686.18
8591.85
8502.7
8412.88
8321.67
8230.07
8138.51
8047.03
7955.61
7864.25
7772.97
7681.75
7590.6
7499.51
7408.47
7317.46
7226.48
7135.53
7044.59
6953.66
6862.75
6771.84
6680.93
6590.03
6499.13
6408.24
6317.34
6226.45
6135.56
6044.66
5953.77
5862.88
5771.98
5681.09
5590.2
5499.3
5408.41
5317.52
5226.63
5135.73
5044.84
4953.95
4863.06
4772.16
4681.27
4590.38
4499.48
4408.59
4317.7
4226.81
4135.91
4045.02
3954.13
3863.24
3772.34
3681.45
3590.56
3499.67
3408.77
3317.88
3226.99
3136.1
3045.2
2954.31
2863.42
2772.52
2681.63
2590.74
2499.85
2408.95
2318.06
2227.17
2136.28
2045.38
1954.49
1863.6
1772.7
1681.81
1590.92
1500.03
1409.13
1318.24
1227.35
1136.45
1045.56
954.668
863.772
772.872
681.987
591.162
500.278
408.97
318.036
229.197
135.835
43.1295
9080.76
8908.79
8855.68
8783.45
8685.17
8590.88
8501.77
8412.03
8320.93
8229.45
8138.01
8046.64
7955.3
7864.01
7772.79
7681.62
7590.5
7499.44
7408.41
7317.42
7226.45
7135.51
7044.57
6953.65
6862.74
6771.83
6680.93
6590.03
6499.13
6408.24
6317.34
6226.45
6135.55
6044.66
5953.77
5862.88
5771.98
5681.09
5590.2
5499.3
5408.41
5317.52
5226.63
5135.73
5044.84
4953.95
4863.06
4772.16
4681.27
4590.38
4499.48
4408.59
4317.7
4226.81
4135.91
4045.02
3954.13
3863.24
3772.34
3681.45
3590.56
3499.67
3408.77
3317.88
3226.99
3136.1
3045.2
2954.31
2863.42
2772.52
2681.63
2590.74
2499.85
2408.95
2318.06
2227.17
2136.28
2045.38
1954.49
1863.6
1772.7
1681.81
1590.92
1500.03
1409.13
1318.24
1227.35
1136.45
1045.56
954.669
863.773
772.873
681.988
591.162
500.278
408.973
318.038
229.195
135.843
43.1373
9079.89
8907.92
8854.48
8782.05
8683.81
8589.59
8500.54
8410.92
8319.98
8228.65
8137.37
8046.12
7954.9
7863.71
7772.55
7681.44
7590.38
7499.35
7408.35
7317.37
7226.42
7135.48
7044.56
6953.64
6862.73
6771.83
6680.93
6590.03
6499.13
6408.24
6317.34
6226.45
6135.55
6044.66
5953.77
5862.88
5771.98
5681.09
5590.2
5499.3
5408.41
5317.52
5226.63
5135.73
5044.84
4953.95
4863.06
4772.16
4681.27
4590.38
4499.48
4408.59
4317.7
4226.81
4135.91
4045.02
3954.13
3863.24
3772.34
3681.45
3590.56
3499.67
3408.77
3317.88
3226.99
3136.1
3045.2
2954.31
2863.42
2772.52
2681.63
2590.74
2499.85
2408.95
2318.06
2227.17
2136.28
2045.38
1954.49
1863.6
1772.7
1681.81
1590.92
1500.03
1409.13
1318.24
1227.35
1136.45
1045.56
954.669
863.774
772.874
681.989
591.161
500.279
408.978
318.041
229.191
135.853
43.1487
9078.69
8906.78
8852.94
8780.27
8682.11
8588
8499.05
8409.58
8318.82
8227.7
8136.59
8045.51
7954.42
7863.34
7772.28
7681.24
7590.23
7499.24
7408.27
7317.32
7226.38
7135.46
7044.54
6953.63
6862.72
6771.82
6680.92
6590.03
6499.13
6408.24
6317.34
6226.45
6135.55
6044.66
5953.77
5862.88
5771.98
5681.09
5590.2
5499.3
5408.41
5317.52
5226.63
5135.73
5044.84
4953.95
4863.06
4772.16
4681.27
4590.38
4499.48
4408.59
4317.7
4226.81
4135.91
4045.02
3954.13
3863.24
3772.34
3681.45
3590.56
3499.67
3408.77
3317.88
3226.99
3136.1
3045.2
2954.31
2863.42
2772.52
2681.63
2590.74
2499.85
2408.95
2318.06
2227.17
2136.28
2045.38
1954.49
1863.6
1772.71
1681.81
1590.92
1500.03
1409.13
1318.24
1227.35
1136.46
1045.56
954.67
863.775
772.875
681.99
591.161
500.279
408.984
318.046
229.185
135.867
43.1647
9077.08
8905.35
8851.01
8778.09
8680.07
8586.14
8497.32
8408.03
8317.5
8226.61
8135.71
8044.81
7953.88
7862.93
7771.97
7681.01
7590.06
7499.11
7408.18
7317.25
7226.34
7135.42
7044.52
6953.61
6862.71
6771.81
6680.92
6590.02
6499.13
6408.23
6317.34
6226.45
6135.55
6044.66
5953.77
5862.88
5771.98
5681.09
5590.2
5499.3
5408.41
5317.52
5226.63
5135.73
5044.84
4953.95
4863.06
4772.16
4681.27
4590.38
4499.48
4408.59
4317.7
4226.81
4135.91
4045.02
3954.13
3863.24
3772.34
3681.45
3590.56
3499.67
3408.77
3317.88
3226.99
3136.1
3045.2
2954.31
2863.42
2772.52
2681.63
2590.74
2499.85
2408.95
2318.06
2227.17
2136.28
2045.38
1954.49
1863.6
1772.71
1681.81
1590.92
1500.03
1409.13
1318.24
1227.35
1136.46
1045.56
954.671
863.776
772.877
681.991
591.161
500.279
408.992
318.052
229.177
135.884
43.1868
9074.98
8903.6
8848.69
8775.5
8677.73
8584.04
8495.38
8406.31
8316.05
8225.42
8134.76
8044.06
7953.3
7862.48
7771.63
7680.76
7589.87
7498.98
7408.08
7317.18
7226.29
7135.39
7044.49
6953.6
6862.7
6771.81
6680.91
6590.02
6499.13
6408.23
6317.34
6226.45
6135.55
6044.66
5953.77
5862.87
5771.98
5681.09
5590.2
5499.3
5408.41
5317.52
5226.63
5135.73
5044.84
4953.95
4863.06
4772.16
4681.27
4590.38
4499.48
4408.59
4317.7
4226.81
4135.91
4045.02
3954.13
3863.24
3772.34
3681.45
3590.56
3499.67
3408.77
3317.88
3226.99
3136.1
3045.2
2954.31
2863.42
2772.52
2681.63
2590.74
2499.85
2408.95
2318.06
2227.17
2136.28
2045.38
1954.49
1863.6
1772.71
1681.81
1590.92
1500.03
1409.13
1318.24
1227.35
1136.46
1045.56
954.672
863.777
772.879
681.993
591.161
500.279
409.002
318.06
229.166
135.905
43.2168
9072.29
8901.52
8845.94
8772.51
8675.11
8581.73
8493.29
8404.47
8314.51
8224.16
8133.75
8043.26
7952.68
7862.01
7771.27
7680.49
7589.68
7498.84
7407.98
7317.11
7226.24
7135.35
7044.47
6953.58
6862.69
6771.8
6680.91
6590.01
6499.12
6408.23
6317.34
6226.45
6135.55
6044.66
5953.77
5862.87
5771.98
5681.09
5590.2
5499.3
5408.41
5317.52
5226.63
5135.73
5044.84
4953.95
4863.06
4772.16
4681.27
4590.38
4499.48
4408.59
4317.7
4226.81
4135.91
4045.02
3954.13
3863.24
3772.34
3681.45
3590.56
3499.67
3408.77
3317.88
3226.99
3136.1
3045.2
2954.31
2863.42
2772.52
2681.63
2590.74
2499.85
2408.95
2318.06
2227.17
2136.28
2045.38
1954.49
1863.6
1772.71
1681.81
1590.92
1500.03
1409.13
1318.24
1227.35
1136.46
1045.57
954.673
863.779
772.88
681.995
591.16
500.279
409.013
318.071
229.151
135.93
43.2571
9068.9
8899.12
8842.79
8769.16
8672.27
8579.29
8491.09
8402.56
8312.92
8222.88
8132.72
8042.46
7952.05
7861.53
7770.91
7680.22
7589.48
7498.69
7407.88
7317.04
7226.18
7135.32
7044.44
6953.56
6862.68
6771.79
6680.9
6590.01
6499.12
6408.23
6317.34
6226.44
6135.55
6044.66
5953.77
5862.87
5771.98
5681.09
5590.2
5499.3
5408.41
5317.52
5226.63
5135.73
5044.84
4953.95
4863.06
4772.16
4681.27
4590.38
4499.48
4408.59
4317.7
4226.81
4135.91
4045.02
3954.13
3863.24
3772.34
3681.45
3590.56
3499.67
3408.77
3317.88
3226.99
3136.1
3045.2
2954.31
2863.42
2772.52
2681.63
2590.74
2499.85
2408.95
2318.06
2227.17
2136.28
2045.38
1954.49
1863.6
1772.71
1681.81
1590.92
1500.03
1409.14
1318.24
1227.35
1136.46
1045.57
954.674
863.78
772.883
681.997
591.16
500.279
409.027
318.086
229.13
135.962
43.3109
9064.74
8896.42
8839.28
8765.5
8669.29
8576.79
8488.87
8400.65
8311.34
8221.6
8131.71
8041.66
7951.44
7861.06
7770.56
7679.96
7589.29
7498.55
7407.78
7316.97
7226.13
7135.28
7044.42
6953.54
6862.66
6771.78
6680.9
6590.01
6499.12
6408.23
6317.34
6226.44
6135.55
6044.66
5953.77
5862.87
5771.98
5681.09
5590.2
5499.3
5408.41
5317.52
5226.63
5135.73
5044.84
4953.95
4863.06
4772.16
4681.27
4590.38
4499.48
4408.59
4317.7
4226.81
4135.91
4045.02
3954.13
3863.24
3772.34
3681.45
3590.56
3499.67
3408.77
3317.88
3226.99
3136.1
3045.2
2954.31
2863.42
2772.52
2681.63
2590.74
2499.85
2408.95
2318.06
2227.17
2136.28
2045.38
1954.49
1863.6
1772.71
1681.81
1590.92
1500.03
1409.14
1318.24
1227.35
1136.46
1045.57
954.675
863.782
772.885
681.999
591.16
500.278
409.042
318.105
229.103
136
43.3818
9059.79
8893.51
8835.5
8761.66
8666.27
8574.32
8486.7
8398.79
8309.82
8220.39
8130.75
8040.9
7950.85
7860.62
7770.22
7679.71
7589.1
7498.42
7407.68
7316.9
7226.08
7135.25
7044.39
6953.53
6862.65
6771.77
6680.89
6590
6499.12
6408.23
6317.33
6226.44
6135.55
6044.66
5953.77
5862.87
5771.98
5681.09
5590.2
5499.3
5408.41
5317.52
5226.63
5135.73
5044.84
4953.95
4863.06
4772.16
4681.27
4590.38
4499.48
4408.59
4317.7
4226.81
4135.91
4045.02
3954.13
3863.24
3772.34
3681.45
3590.56
3499.67
3408.77
3317.88
3226.99
3136.1
3045.2
2954.31
2863.42
2772.52
2681.63
2590.74
2499.85
2408.95
2318.06
2227.17
2136.28
2045.38
1954.49
1863.6
1772.71
1681.81
1590.92
1500.03
1409.14
1318.24
1227.35
1136.46
1045.57
954.676
863.783
772.887
682.002
591.16
500.277
409.059
318.128
229.069
136.049
43.4739
9054.1
8890.56
8831.62
8757.76
8663.35
8571.99
8484.66
8397.07
8308.42
8219.27
8129.86
8040.21
7950.32
7860.21
7769.92
7679.48
7588.93
7498.29
7407.59
7316.83
7226.04
7135.21
7044.37
6953.51
6862.64
6771.77
6680.89
6590
6499.11
6408.22
6317.33
6226.44
6135.55
6044.66
5953.77
5862.87
5771.98
5681.09
5590.2
5499.3
5408.41
5317.52
5226.63
5135.73
5044.84
4953.95
4863.06
4772.16
4681.27
4590.38
4499.48
4408.59
4317.7
4226.81
4135.91
4045.02
3954.13
3863.24
3772.34
3681.45
3590.56
3499.67
3408.77
3317.88
3226.99
3136.1
3045.2
2954.31
2863.42
2772.52
2681.63
2590.74
2499.85
2408.95
2318.06
2227.17
2136.28
2045.38
1954.49
1863.6
1772.71
1681.81
1590.92
1500.03
1409.14
1318.24
1227.35
1136.46
1045.57
954.677
863.784
772.889
682.004
591.16
500.275
409.078
318.157
229.025
136.11
43.5917
9047.88
8887.78
8827.88
8754.03
8660.69
8569.92
8482.86
8395.55
8307.2
8218.29
8129.09
8039.6
7949.85
7859.85
7769.65
7679.28
7588.78
7498.19
7407.51
7316.78
7226
7135.19
7044.35
6953.5
6862.63
6771.76
6680.88
6590
6499.11
6408.22
6317.33
6226.44
6135.55
6044.66
5953.77
5862.87
5771.98
5681.09
5590.2
5499.3
5408.41
5317.52
5226.63
5135.73
5044.84
4953.95
4863.06
4772.16
4681.27
4590.38
4499.48
4408.59
4317.7
4226.81
4135.91
4045.02
3954.13
3863.24
3772.34
3681.45
3590.56
3499.67
3408.77
3317.88
3226.99
3136.1
3045.2
2954.31
2863.42
2772.52
2681.63
2590.74
2499.85
2408.95
2318.06
2227.17
2136.28
2045.38
1954.49
1863.6
1772.71
1681.81
1590.92
1500.03
1409.14
1318.24
1227.35
1136.46
1045.57
954.678
863.785
772.891
682.007
591.159
500.272
409.097
318.191
228.972
136.188
43.7397
9041.53
8885.52
8824.54
8750.69
8658.45
8568.22
8481.38
8394.3
8306.19
8217.5
8128.46
8039.11
7949.46
7859.55
7769.42
7679.11
7588.66
7498.1
7407.44
7316.73
7225.96
7135.16
7044.33
6953.49
6862.63
6771.75
6680.88
6589.99
6499.11
6408.22
6317.33
6226.44
6135.55
6044.66
5953.77
5862.87
5771.98
5681.09
5590.2
5499.3
5408.41
5317.52
5226.63
5135.73
5044.84
4953.95
4863.06
4772.16
4681.27
4590.38
4499.48
4408.59
4317.7
4226.81
4135.91
4045.02
3954.13
3863.24
3772.34
3681.45
3590.56
3499.67
3408.77
3317.88
3226.99
3136.1
3045.2
2954.31
2863.42
2772.52
2681.63
2590.74
2499.85
2408.95
2318.06
2227.17
2136.28
2045.38
1954.49
1863.6
1772.71
1681.81
1590.92
1500.03
1409.14
1318.24
1227.35
1136.46
1045.57
954.679
863.786
772.893
682.009
591.159
500.269
409.117
318.228
228.909
136.287
43.922
9035.64
8884.13
8821.94
8747.97
8656.77
8567
8480.29
8393.37
8305.45
8216.91
8127.99
8038.74
7949.18
7859.33
7769.26
7678.99
7588.57
7498.03
7407.39
7316.69
7225.94
7135.14
7044.32
6953.48
6862.62
6771.75
6680.87
6589.99
6499.11
6408.22
6317.33
6226.44
6135.55
6044.66
5953.77
5862.87
5771.98
5681.09
5590.2
5499.3
5408.41
5317.52
5226.63
5135.73
5044.84
4953.95
4863.06
4772.16
4681.27
4590.38
4499.48
4408.59
4317.7
4226.81
4135.91
4045.02
3954.13
3863.24
3772.34
3681.45
3590.56
3499.67
3408.77
3317.88
3226.99
3136.1
3045.2
2954.31
2863.42
2772.52
2681.63
2590.74
2499.85
2408.95
2318.06
2227.17
2136.28
2045.38
1954.49
1863.6
1772.71
1681.81
1590.92
1500.03
1409.14
1318.25
1227.35
1136.46
1045.57
954.679
863.787
772.894
682.011
591.158
500.264
409.136
318.268
228.837
136.411
44.1389
9030.95
8883.96
8820.31
8746.08
8655.76
8566.33
8479.66
8392.82
8305
8216.56
8127.71
8038.52
7949
7859.2
7769.15
7678.91
7588.51
7497.98
7407.36
7316.67
7225.92
7135.13
7044.31
6953.47
6862.62
6771.75
6680.87
6589.99
6499.11
6408.22
6317.33
6226.44
6135.55
6044.66
5953.77
5862.87
5771.98
5681.09
5590.2
5499.3
5408.41
5317.52
5226.63
5135.73
5044.84
4953.95
4863.06
4772.16
4681.27
4590.38
4499.48
4408.59
4317.7
4226.81
4135.91
4045.02
3954.13
3863.24
3772.34
3681.45
3590.56
3499.67
3408.77
3317.88
3226.99
3136.1
3045.2
2954.31
2863.42
2772.52
2681.63
2590.74
2499.85
2408.95
2318.06
2227.17
2136.28
2045.38
1954.49
1863.6
1772.71
1681.81
1590.92
1500.03
1409.14
1318.25
1227.35
1136.46
1045.57
954.68
863.787
772.895
682.013