/*--------------------------------*- C++ -*----------------------------------*\
| =========                 |                                                 |
| \\      /  F ield         | foam-extend: Open Source CFD                    |
|  \\    /   O peration     | Version:     5.0                                |
|   \\  /    A nd           | Web:         http://www.foam-extend.org         |
|    \\/     M anipulation  |                                                 |
\*---------------------------------------------------------------------------*/
FoamFile
{
    version     2.0;
    format      ascii;
    class       surfaceScalarField;
    location    "0.02";
    object      phi;
}
// * * * * * * * * * * * * * * * * * * * * * * * * * * * * * * * * * * * * * //

dimensions      [0 3 -1 0 0 0 0];

internalField   nonuniform List<scalar> 
7860
(
0.00428
0.000719998
0.00393035
0.000349649
0.0043147
-0.000384347
0.0048867
-0.000572002
0.0052742
-0.000387493
0.00553266
-0.000258462
0.00574832
-0.00021566
0.00593576
-0.000187445
0.00609116
-0.000155395
0.00621656
-0.000125401
0.00631691
-0.000100355
0.00639653
-7.96206e-05
0.00645894
-6.24114e-05
0.00650724
-4.82958e-05
0.00654412
-3.68767e-05
0.00657192
-2.78019e-05
0.00659263
-2.07082e-05
0.00660788
-1.52512e-05
0.00661899
-1.11135e-05
0.00662701
-8.01664e-06
0.00663274
-5.72749e-06
0.00663679
-4.05574e-06
0.00663964
-2.84785e-06
0.00664162
-1.98408e-06
0.006643
-1.372e-06
0.00664394
-9.42039e-07
0.00664458
-6.42528e-07
0.00664502
-4.35509e-07
0.00664531
-2.93383e-07
0.00664551
-1.96486e-07
0.00664564
-1.30875e-07
0.00664572
-8.67255e-08
0.00664578
-5.71476e-08
0.00664582
-3.74375e-08
0.00664584
-2.44045e-08
0.00664586
-1.58256e-08
0.00664587
-1.0194e-08
0.00664588
-6.51813e-09
0.00664588
-4.1163e-09
0.00664588
-2.58128e-09
0.00664589
-1.62328e-09
0.00664589
-9.43688e-10
0.00664589
-5.15559e-10
0.00664589
-2.87563e-10
0.00664589
-1.20761e-10
0.00664589
-1.7582e-11
0.00664589
4.60464e-11
0.00664589
8.51321e-11
0.00664589
1.042e-10
0.00664589
3.84195e-11
0.00664589
1.29038e-10
0.00664589
2.22553e-10
0.00664589
1.16145e-10
0.00664589
1.12115e-10
0.00664589
-5.64279e-11
0.00664589
1.15709e-10
0.00664589
2.89182e-10
0.00664589
9.02328e-11
0.00664589
9.04404e-11
0.00664589
5.85048e-11
0.00664589
-2.41015e-10
0.00664589
9.38964e-11
0.00664589
3.66786e-10
0.00664589
3.18715e-11
0.00664589
3.53619e-11
0.00664589
4.91475e-11
0.00664589
6.52172e-11
0.00664589
8.78133e-11
0.00664589
1.27928e-10
0.00664589
1.88371e-10
0.00664589
2.77722e-10
0.00664589
4.20427e-10
0.00664589
6.34991e-10
0.00664589
9.50936e-10
0.00664589
1.4112e-09
0.00664588
2.07331e-09
0.00664588
3.01393e-09
0.00664588
4.33245e-09
0.00664587
6.15342e-09
0.00664586
8.63787e-09
0.00664585
1.19643e-08
0.00664583
1.634e-08
0.00664581
2.19984e-08
0.00664578
2.91547e-08
0.00664575
3.80134e-08
0.0066457
4.87291e-08
0.00664564
6.13265e-08
0.00664556
7.54407e-08
0.00664547
9.05364e-08
0.00664536
1.10863e-07
0.0066452
1.60467e-07
0.00664494
2.63213e-07
0.0066447
2.34049e-07
0.00664508
-3.82783e-07
0.00664528
-1.94547e-07
0.00663945
5.82614e-06
0.00663172
7.73221e-06
0.00665993
-2.82105e-05
0.00664444
1.54923e-05
4.31407e-05
0.00759701
-0.00187701
0.00854518
-0.000598528
0.00963708
-0.00147624
0.0108626
-0.0017975
0.0118524
-0.00137731
0.012594
-0.00100008
0.0131841
-0.000805728
0.0136706
-0.000674013
0.0140687
-0.00055343
0.0143889
-0.000445652
0.0146433
-0.000354742
0.0148431
-0.0002794
0.0149982
-0.000217464
0.015117
-0.00016718
0.0152071
-0.000126916
0.0152745
-9.51801e-05
0.0153243
-7.05532e-05
0.0153608
-5.1729e-05
0.0153872
-3.75367e-05
0.0154062
-2.69715e-05
0.0154196
-1.92003e-05
0.0154291
-1.35499e-05
0.0154358
-9.48421e-06
0.0154404
-6.58758e-06
0.0154435
-4.54248e-06
0.0154457
-3.11066e-06
0.0154472
-2.11621e-06
0.0154482
-1.43082e-06
0.0154488
-9.61664e-07
0.0154493
-6.42645e-07
0.0154496
-4.27108e-07
0.0154498
-2.82407e-07
0.0154499
-1.85709e-07
0.01545
-1.21426e-07
0.0154501
-7.89949e-08
0.0154501
-5.11127e-08
0.0154501
-3.28499e-08
0.0154501
-2.09517e-08
0.0154501
-1.32082e-08
0.0154501
-8.24701e-09
0.0154501
-5.11417e-09
0.0154501
-2.98151e-09
0.0154501
-1.63749e-09
0.0154501
-8.70661e-10
0.0154501
-3.46496e-10
0.0154501
-2.27357e-11
0.0154501
1.76925e-10
0.0154501
2.95815e-10
0.0154501
3.4978e-10
0.0154501
2.16636e-10
0.0154501
4.08085e-10
0.0154501
6.16018e-10
0.0154501
4.29278e-10
0.0154501
3.91529e-10
0.0154501
3.92848e-12
0.0154501
3.47966e-10
0.0154501
6.9729e-10
0.0154501
3.12614e-10
0.0154501
2.92374e-10
0.0154501
2.00799e-10
0.0154502
-4.91792e-10
0.0154502
2.23025e-10
0.0154502
8.62773e-10
0.0154502
1.15515e-10
0.0154502
9.33666e-11
0.0154502
1.2278e-10
0.0154502
1.67471e-10
0.0154502
2.35882e-10
0.0154502
3.58792e-10
0.0154502
5.48886e-10
0.0154502
8.40632e-10
0.0154502
1.30513e-09
0.0154501
2.00658e-09
0.0154501
3.04804e-09
0.0154501
4.57551e-09
0.0154501
6.78571e-09
0.0154501
9.94203e-09
0.0154501
1.43916e-08
0.0154501
2.05757e-08
0.0154501
2.90603e-08
0.0154501
4.05035e-08
0.01545
5.56775e-08
0.01545
7.54592e-08
0.0154499
1.00723e-07
0.0154498
1.32309e-07
0.0154497
1.70927e-07
0.0154495
2.17026e-07
0.0154493
2.70641e-07
0.0154491
3.32813e-07
0.0154488
4.14592e-07
0.0154484
5.54187e-07
0.0154479
7.57875e-07
0.0154474
6.85673e-07
0.0154472
-1.24092e-07
0.0154455
1.50101e-06
0.0154384
1.29373e-05
0.0154343
1.18161e-05
0.0154563
-5.02472e-05
0.0154211
5.07209e-05
9.60919e-05
0.00846837
-0.00534538
0.0106286
-0.0027588
0.0123704
-0.00321799
0.0139567
-0.00338377
0.0152781
-0.00269879
0.0163296
-0.00205151
0.0171691
-0.00164527
0.0178457
-0.00135055
0.0183893
-0.00109706
0.0188218
-0.000878126
0.0191618
-0.000694821
0.0194262
-0.00054373
0.0196292
-0.00042053
0.0197834
-0.000321352
0.0198991
-0.00024262
0.019985
-0.000181034
0.020048
-0.000133576
0.0200938
-9.7523e-05
0.0201267
-7.0489e-05
0.0201502
-5.0465e-05
0.0201668
-3.58042e-05
0.0201785
-2.51888e-05
0.0201866
-1.75795e-05
0.0201922
-1.21772e-05
0.020196
-8.37553e-06
0.0201986
-5.72188e-06
0.0202004
-3.88388e-06
0.0202016
-2.62037e-06
0.0202024
-1.75756e-06
0.0202029
-1.17227e-06
0.0202032
-7.77676e-07
0.0202035
-5.13258e-07
0.0202036
-3.36925e-07
0.0202037
-2.19951e-07
0.0202038
-1.42863e-07
0.0202038
-9.22731e-08
0.0202039
-5.91956e-08
0.0202039
-3.76871e-08
0.0202039
-2.37244e-08
0.0202039
-1.47539e-08
0.0202039
-9.05032e-09
0.0202039
-5.28838e-09
0.0202039
-2.92861e-09
0.0202039
-1.51e-09
0.0202039
-5.78003e-10
0.0202039
-7.66245e-12
0.0202039
3.4466e-10
0.0202039
5.50437e-10
0.0202039
6.4795e-10
0.0202039
4.88129e-10
0.0202039
7.09063e-10
0.0202039
9.66974e-10
0.0202039
7.87338e-10
0.0202039
7.61301e-10
0.0202039
2.15334e-10
0.0202039
5.4713e-10
0.0202039
9.45853e-10
0.0202039
5.1128e-10
0.0202039
5.0171e-10
0.0202039
4.21083e-10
0.0202039
-5.39464e-10
0.0202039
2.57923e-10
0.0202039
1.07159e-09
0.0202039
9.98253e-11
0.0202039
7.19953e-11
0.0202039
1.17723e-10
0.0202039
1.86144e-10
0.0202039
2.9992e-10
0.0202039
5.09679e-10
0.0202039
8.42454e-10
0.0202039
1.36896e-09
0.0202039
2.2102e-09
0.0202039
3.48572e-09
0.0202039
5.39394e-09
0.0202039
8.20966e-09
0.0202039
1.23066e-08
0.0202039
1.81876e-08
0.0202039
2.65184e-08
0.0202038
3.81649e-08
0.0202038
5.42233e-08
0.0202038
7.6026e-08
0.0202037
1.05156e-07
0.0202037
1.43419e-07
0.0202036
1.9274e-07
0.0202035
2.55032e-07
0.0202033
3.32069e-07
0.0202031
4.25334e-07
0.0202028
5.35941e-07
0.0202025
6.66658e-07
0.0202021
8.32001e-07
0.0202016
1.07423e-06
0.0202009
1.39282e-06
0.0202002
1.4336e-06
0.0201992
8.86355e-07
0.020197
3.63844e-06
0.0201928
1.71849e-05
0.0201905
1.41097e-05
0.020191
-5.07656e-05
0.0201431
9.8606e-05
0.000141541
0.008172
-0.00851738
0.0107702
-0.00535697
0.0128539
-0.00530172
0.0145871
-0.00511696
0.0160345
-0.00414623
0.0172254
-0.00324237
0.0181882
-0.00260809
0.0189596
-0.00212196
0.0195734
-0.0017109
0.0200578
-0.00136244
0.0204357
-0.00107274
0.0207271
-0.000835171
0.0209493
-0.00064267
0.0211166
-0.000488704
0.0212413
-0.00036729
0.0213331
-0.000272902
0.0214002
-0.000200581
0.0214485
-0.00014592
0.0214832
-0.00010512
0.0215077
-7.5028e-05
0.021525
-5.30808e-05
0.0215371
-3.72452e-05
0.0215454
-2.59306e-05
0.0215512
-1.79213e-05
0.0215551
-1.23003e-05
0.0215578
-8.38616e-06
0.0215596
-5.68172e-06
0.0215608
-3.82659e-06
0.0215616
-2.56232e-06
0.0215621
-1.70635e-06
0.0215625
-1.13028e-06
0.0215627
-7.44824e-07
0.0215628
-4.88236e-07
0.0215629
-3.18354e-07
0.021563
-2.06513e-07
0.021563
-1.33174e-07
0.0215631
-8.53079e-08
0.0215631
-5.42249e-08
0.0215631
-3.40976e-08
0.0215631
-2.11265e-08
0.0215631
-1.28232e-08
0.0215631
-7.51236e-09
0.0215631
-4.1916e-09
0.0215631
-2.1013e-09
0.0215631
-7.71438e-10
0.0215631
3.98861e-11
0.0215631
5.31816e-10
0.0215631
8.21425e-10
0.0215631
9.7903e-10
0.0215631
8.97816e-10
0.0215631
1.0102e-09
0.0215631
1.16387e-09
0.0215631
1.10545e-09
0.0215631
1.13839e-09
0.0215631
7.02319e-10
0.0215631
7.29282e-10
0.0215631
8.70504e-10
0.0215631
6.22687e-10
0.0215631
6.8106e-10
0.0215631
7.21058e-10
0.0215631
-6.39073e-11
0.0215631
2.10746e-10
0.0215631
6.35477e-10
0.0215631
-6.39777e-11
0.0215631
-3.96938e-11
0.0215631
2.18737e-11
0.0215631
1.07653e-10
0.0215631
2.58288e-10
0.0215631
5.43192e-10
0.0215631
1.01278e-09
0.0215631
1.769e-09
0.0215631
2.98024e-09
0.0215631
4.83205e-09
0.0215631
7.6173e-09
0.0215631
1.17496e-08
0.0215631
1.7789e-08
0.0215631
2.64975e-08
0.0215631
3.88859e-08
0.0215631
5.62829e-08
0.021563
8.03656e-08
0.021563
1.13249e-07
0.021563
1.57446e-07
0.0215629
2.15847e-07
0.0215628
2.91679e-07
0.0215626
3.88247e-07
0.0215625
5.08766e-07
0.0215622
6.56152e-07
0.0215619
8.32874e-07
0.0215616
1.04283e-06
0.0215611
1.30117e-06
0.0215605
1.65191e-06
0.0215598
2.10915e-06
0.0215589
2.37702e-06
0.0215575
2.21867e-06
0.0215558
5.37248e-06
0.021554
1.89991e-05
0.0215511
1.69926e-05
0.0215385
-3.81359e-05
0.0215012
0.000135892
0.000166151
0.00731783
-0.0108352
0.00970021
-0.00773935
0.0117256
-0.00732707
0.0133951
-0.00678652
0.014809
-0.00556014
0.0160008
-0.0044341
0.0169792
-0.00358653
0.0177669
-0.00290965
0.0183933
-0.00233732
0.0188862
-0.0018553
0.0192693
-0.00145587
0.0195634
-0.00112931
0.0197866
-0.000865798
0.0199538
-0.00065597
0.0200778
-0.000491287
0.0201688
-0.000363848
0.0202348
-0.000266612
0.0202823
-0.000193402
0.0203161
-0.000138963
0.0203401
-9.89428e-05
0.0203568
-6.98438e-05
0.0203685
-4.89061e-05
0.0203765
-3.3984e-05
0.0203821
-2.34456e-05
0.0203858
-1.60652e-05
0.0203884
-1.09358e-05
0.0203901
-7.39839e-06
0.0203912
-4.97594e-06
0.020392
-3.32764e-06
0.0203925
-2.21327e-06
0.0203928
-1.46436e-06
0.0203931
-9.63813e-07
0.0203932
-6.31102e-07
0.0203933
-4.11149e-07
0.0203934
-2.66427e-07
0.0203934
-1.71596e-07
0.0203934
-1.09784e-07
0.0203934
-6.96823e-08
0.0203935
-4.37593e-08
0.0203935
-2.70335e-08
0.0203935
-1.62917e-08
0.0203935
-9.53808e-09
0.0203935
-5.31757e-09
0.0203935
-2.60157e-09
0.0203935
-9.061e-10
0.0203935
1.24475e-10
0.0203935
7.43803e-10
0.0203935
1.10906e-09
0.0203935
1.33428e-09
0.0203935
1.63256e-09
0.0203935
1.32183e-09
0.0203935
1.03791e-09
0.0203935
1.38588e-09
0.0203935
1.50428e-09
0.0203935
1.83152e-09
0.0203935
9.26201e-10
0.0203935
1.25963e-10
0.0203935
6.62019e-10
0.0203935
8.24775e-10
0.0203935
1.02969e-09
0.0203935
1.71692e-09
0.0203935
1.68791e-10
0.0203935
-1.18107e-09
0.0203935
-3.47454e-10
0.0203935
-2.05327e-10
0.0203935
-1.31548e-10
0.0203935
-3.60828e-11
0.0203935
1.43156e-10
0.0203935
4.9065e-10
0.0203935
1.07954e-09
0.0203935
2.04864e-09
0.0203935
3.60554e-09
0.0203935
5.99978e-09
0.0203935
9.62046e-09
0.0203935
1.50129e-08
0.0203935
2.29221e-08
0.0203934
3.43638e-08
0.0203934
5.06969e-08
0.0203934
7.37101e-08
0.0203934
1.05681e-07
0.0203934
1.49506e-07
0.0203933
2.08667e-07
0.0203932
2.87212e-07
0.0203931
3.89729e-07
0.020393
5.21042e-07
0.0203928
6.85956e-07
0.0203926
8.88923e-07
0.0203923
1.13371e-06
0.0203919
1.42482e-06
0.0203914
1.777e-06
0.0203909
2.23563e-06
0.0203901
2.83354e-06
0.0203892
3.33532e-06
0.0203879
3.50877e-06
0.0203866
6.6599e-06
0.020386
1.95784e-05
0.0203832
1.98575e-05
0.0203678
-2.27469e-05
0.0203631
0.000140526
0.000156772
0.00629254
-0.0121278
0.00807248
-0.00951929
0.00973064
-0.00898522
0.0111488
-0.00820465
0.0123936
-0.00680493
0.0134745
-0.00551509
0.0143806
-0.00449258
0.0151185
-0.00364755
0.0157087
-0.00292755
0.016174
-0.00232055
0.0165355
-0.00181735
0.0168124
-0.00140626
0.0170219
-0.00107529
0.0171784
-0.000812503
0.0172941
-0.000606927
0.0173786
-0.000448368
0.0174397
-0.000327767
0.0174836
-0.000237234
0.0175147
-0.000170108
0.0175367
-0.000120888
0.017552
-8.51847e-05
0.0175627
-5.9551e-05
0.01757
-4.13186e-05
0.017575
-2.8466e-05
0.0175784
-1.94798e-05
0.0175807
-1.3244e-05
0.0175823
-8.94974e-06
0.0175833
-6.01295e-06
0.017584
-4.0171e-06
0.0175845
-2.66926e-06
0.0175848
-1.76446e-06
0.017585
-1.16028e-06
0.0175851
-7.59125e-07
0.0175852
-4.94163e-07
0.0175852
-3.1992e-07
0.0175853
-2.05854e-07
0.0175853
-1.3157e-07
0.0175853
-8.33958e-08
0.0175853
-5.2281e-08
0.0175853
-3.22194e-08
0.0175853
-1.93326e-08
0.0175853
-1.1299e-08
0.0175853
-6.24423e-09
0.0175853
-2.96947e-09
0.0175853
-9.68913e-10
0.0175853
2.51279e-10
0.0175853
9.80497e-10
0.0175853
1.41032e-09
0.0175853
1.6803e-09
0.0175853
2.05171e-09
0.0175853
1.6373e-09
0.0175853
1.2323e-09
0.0175853
1.65495e-09
0.0175853
1.80075e-09
0.0175853
2.26886e-09
0.0175853
1.12488e-09
0.0175853
5.94801e-11
0.0175853
7.21578e-10
0.0175853
9.37077e-10
0.0175853
1.20834e-09
0.0175853
2.17816e-09
0.0175853
1.40179e-10
0.0175853
-1.71964e-09
0.0175853
-5.89075e-10
0.0175853
-3.94386e-10
0.0175853
-3.17235e-10
0.0175853
-2.2051e-10
0.0175853
-2.16408e-11
0.0175853
3.67582e-10
0.0175853
1.05585e-09
0.0175853
2.21898e-09
0.0175853
4.07951e-09
0.0175853
6.95417e-09
0.0175853
1.13262e-08
0.0175853
1.78584e-08
0.0175853
2.74662e-08
0.0175853
4.14013e-08
0.0175853
6.13459e-08
0.0175853
8.95205e-08
0.0175853
1.28774e-07
0.0175852
1.82738e-07
0.0175852
2.55815e-07
0.0175851
3.53182e-07
0.017585
4.80734e-07
0.0175849
6.44769e-07
0.0175847
8.51622e-07
0.0175845
1.10715e-06
0.0175842
1.41611e-06
0.0175839
1.78309e-06
0.0175834
2.22171e-06
0.0175829
2.77729e-06
0.0175822
3.49518e-06
0.0175814
4.17951e-06
0.0175803
4.57662e-06
0.0175794
7.54922e-06
0.0175795
1.94572e-05
0.0175776
2.1808e-05
0.0175647
-9.86248e-06
0.0175833
0.000121938
0.000126835
0.00534334
-0.0124711
0.00637702
-0.010553
0.00749669
-0.0101049
0.008536
-0.00924395
0.00951292
-0.00778185
0.0104014
-0.00640352
0.0111688
-0.00525999
0.0118055
-0.00428432
0.0123209
-0.00344285
0.0127295
-0.00272919
0.0130478
-0.00213565
0.0132917
-0.00165021
0.0134761
-0.00125962
0.0136135
-0.000949961
0.0137148
-0.000708226
0.0137887
-0.000522203
0.0138419
-0.000381042
0.01388
-0.000275315
0.013907
-0.000197094
0.013926
-0.000139855
0.0139392
-9.84115e-05
0.0139483
-6.87086e-05
0.0139546
-4.76153e-05
0.0139589
-3.27676e-05
0.0139619
-2.24003e-05
0.0139638
-1.52148e-05
0.0139652
-1.02723e-05
0.013966
-6.89569e-06
0.0139666
-4.60319e-06
0.013967
-3.05637e-06
0.0139673
-2.01889e-06
0.0139674
-1.32667e-06
0.0139675
-8.67408e-07
0.0139676
-5.64261e-07
0.0139677
-3.65007e-07
0.0139677
-2.34682e-07
0.0139677
-1.49858e-07
0.0139677
-9.48604e-08
0.0139677
-5.93519e-08
0.0139677
-3.64977e-08
0.0139677
-2.18432e-08
0.0139677
-1.27018e-08
0.0139677
-6.92575e-09
0.0139677
-3.20574e-09
0.0139677
-9.51254e-10
0.0139677
4.23544e-10
0.0139677
1.24073e-09
0.0139677
1.71813e-09
0.0139677
2.0142e-09
0.0139677
2.3512e-09
0.0139677
1.94948e-09
0.0139677
1.55055e-09
0.0139677
1.91024e-09
0.0139677
2.0303e-09
0.0139677
2.427e-09
0.0139677
1.31952e-09
0.0139677
2.60222e-10
0.0139677
8.16282e-10
0.0139677
1.02109e-09
0.0139677
1.27039e-09
0.0139677
2.11699e-09
0.0139677
1.15465e-10
0.0139677
-1.75626e-09
0.0139677
-7.69708e-10
0.0139677
-5.83198e-10
0.0139677
-5.18782e-10
0.0139677
-4.30283e-10
0.0139677
-2.21677e-10
0.0139677
1.88306e-10
0.0139677
9.57105e-10
0.0139677
2.27993e-09
0.0139677
4.38417e-09
0.0139677
7.66324e-09
0.0139677
1.26702e-08
0.0139677
2.01717e-08
0.0139677
3.12314e-08
0.0139677
4.73067e-08
0.0139677
7.03621e-08
0.0139677
1.02998e-07
0.0139677
1.48568e-07
0.0139677
2.11353e-07
0.0139676
2.96577e-07
0.0139676
4.10421e-07
0.0139675
5.59951e-07
0.0139674
7.52765e-07
0.0139672
9.96516e-07
0.013967
1.29817e-06
0.0139668
1.66304e-06
0.0139665
2.09515e-06
0.0139661
2.60616e-06
0.0139656
3.23886e-06
0.0139651
4.04146e-06
0.0139644
4.83551e-06
0.0139637
5.34832e-06
0.0139631
8.07117e-06
0.0139638
1.88152e-05
0.0139632
2.2401e-05
0.0139543
-1.0043e-06
0.0139799
9.63782e-05
9.35471e-05
0.00459538
-0.0120665
0.00491196
-0.0108695
0.00544891
-0.0106419
0.00605232
-0.00984736
0.00670559
-0.00843513
0.00735001
-0.00704794
0.00793428
-0.00584426
0.00843411
-0.00478415
0.00884613
-0.00385488
0.00917643
-0.00305949
0.00943521
-0.00239444
0.00963406
-0.00184905
0.00978434
-0.00140989
0.00989627
-0.0010619
0.0099786
-0.000790557
0.0100385
-0.000582064
0.0100815
-0.000424118
0.0101122
-0.000306021
0.0101339
-0.000218797
0.0101492
-0.000155067
0.0101597
-0.000108993
0.0101671
-7.60173e-05
0.0101721
-5.26294e-05
0.0101755
-3.61858e-05
0.0101778
-2.47165e-05
0.0101794
-1.6775e-05
0.0101804
-1.13174e-05
0.0101811
-7.59212e-06
0.0101816
-5.06487e-06
0.0101819
-3.36086e-06
0.0101821
-2.21871e-06
0.0101822
-1.45717e-06
0.0101823
-9.52193e-07
0.0101823
-6.19032e-07
0.0101824
-4.00173e-07
0.0101824
-2.57117e-07
0.0101824
-1.64017e-07
0.0101824
-1.03678e-07
0.0101824
-6.47542e-08
0.0101824
-3.97261e-08
0.0101824
-2.3707e-08
0.0101824
-1.36813e-08
0.0101824
-7.34579e-09
0.0101824
-3.29932e-09
0.0101824
-8.4609e-10
0.0101824
6.43879e-10
0.0101824
1.52404e-09
0.0101824
2.0313e-09
0.0101824
2.33424e-09
0.0101824
2.61314e-09
0.0101824
2.2576e-09
0.0101824
1.89234e-09
0.0101824
2.14642e-09
0.0101824
2.22312e-09
0.0101824
2.49176e-09
0.0101824
1.50369e-09
0.0101824
5.42882e-10
0.0101824
9.26651e-10
0.0101824
1.08002e-09
0.0101824
1.26786e-09
0.0101824
1.87949e-09
0.0101824
8.81661e-11
0.0101824
-1.62059e-09
0.0101824
-9.04832e-10
0.0101824
-7.63347e-10
0.0101824
-7.26316e-10
0.0101824
-6.56173e-10
0.0101824
-4.53178e-10
0.0101824
-3.00432e-11
0.0101824
7.90415e-10
0.0101824
2.2196e-09
0.0101824
4.50886e-09
0.0101824
8.09839e-09
0.0101824
1.35986e-08
0.0101824
2.186e-08
0.0101824
3.4066e-08
0.0101824
5.18401e-08
0.0101824
7.73758e-08
0.0101824
1.13582e-07
0.0101824
1.64229e-07
0.0101824
2.34124e-07
0.0101823
3.29168e-07
0.0101823
4.56369e-07
0.0101822
6.23749e-07
0.0101821
8.39951e-07
0.010182
1.11364e-06
0.0101819
1.45249e-06
0.0101817
1.86187e-06
0.0101814
2.3446e-06
0.0101811
2.90943e-06
0.0101808
3.59388e-06
0.0101804
4.43996e-06
0.0101799
5.2702e-06
0.0101795
5.80624e-06
0.0101793
8.24358e-06
0.0101804
1.77202e-05
0.0101812
2.16357e-05
0.0101761
4.03239e-06
0.0102009
7.15869e-05
6.43675e-05
0.00408399
-0.0111505
0.0038093
-0.0105949
0.00381144
-0.010644
0.00398299
-0.0100189
0.00429646
-0.00874859
0.00467417
-0.00742565
0.00505092
-0.00622101
0.00539142
-0.00512465
0.00568144
-0.0041449
0.00591841
-0.00329647
0.00610606
-0.00258208
0.00625107
-0.00199406
0.00636085
-0.00151967
0.00644257
-0.00114362
0.00650256
-0.00085055
0.00654605
-0.000625555
0.00657725
-0.000455309
0.0065994
-0.000328176
0.006615
-0.000234398
0.0066259
-0.000165964
0.00663345
-0.000116546
0.00663865
-8.12168e-05
0.00664221
-5.61854e-05
0.00664463
-3.86026e-05
0.00664626
-2.63494e-05
0.00664736
-1.78721e-05
0.00664809
-1.20505e-05
0.00664858
-8.07934e-06
0.0066489
-5.38716e-06
0.00664911
-3.57297e-06
0.00664925
-2.35751e-06
0.00664934
-1.54761e-06
0.0066494
-1.01082e-06
0.00664944
-6.56788e-07
0.00664946
-4.24321e-07
0.00664948
-2.72435e-07
0.00664949
-1.73615e-07
0.00664949
-1.09594e-07
0.0066495
-6.83134e-08
0.0066495
-4.17961e-08
0.0066495
-2.48502e-08
0.0066495
-1.42075e-08
0.0066495
-7.48899e-09
0.0066495
-3.23259e-09
0.0066495
-6.47994e-10
0.0066495
9.13981e-10
0.0066495
1.83e-09
0.0066495
2.34925e-09
0.0066495
2.6447e-09
0.0066495
2.86206e-09
0.0066495
2.55479e-09
0.0066495
2.2251e-09
0.0066495
2.36789e-09
0.0066495
2.39206e-09
0.0066495
2.53052e-09
0.0066495
1.67503e-09
0.0066495
8.3213e-10
0.0066495
1.04247e-09
0.0066495
1.12364e-09
0.0066495
1.23068e-09
0.0066495
1.60306e-09
0.0066495
5.63438e-11
0.0066495
-1.44734e-09
0.0066495
-1.00904e-09
0.0066495
-9.33192e-10
0.0066495
-9.34869e-10
0.00664951
-8.92918e-10
0.00664951
-7.091e-10
0.00664951
-2.8827e-10
0.00664951
5.53296e-10
0.00664951
2.03843e-09
0.00664951
4.44338e-09
0.00664951
8.23663e-09
0.00664951
1.40696e-08
0.00664951
2.28534e-08
0.0066495
3.58574e-08
0.0066495
5.48255e-08
0.0066495
8.21175e-08
0.00664949
1.20868e-07
0.00664948
1.75151e-07
0.00664946
2.50164e-07
0.00664944
3.52304e-07
0.00664941
4.89189e-07
0.00664936
6.69537e-07
0.0066493
9.02727e-07
0.00664922
1.19807e-06
0.0066491
1.56356e-06
0.00664896
2.00408e-06
0.00664879
2.52075e-06
0.00664858
3.11852e-06
0.00664834
3.82739e-06
0.00664811
4.67608e-06
0.0066479
5.47899e-06
0.00664774
5.96653e-06
0.00664789
8.09267e-06
0.00664937
1.62358e-05
0.00665122
1.97864e-05
0.00664911
6.14849e-06
0.00666992
5.07711e-05
4.17269e-05
0.00378949
-0.00993997
0.0030856
-0.00989097
0.00265169
-0.0102101
0.00243862
-0.00980584
0.0024282
-0.00873818
0.00253944
-0.00753689
0.00270128
-0.00638285
0.00287222
-0.00529559
0.00303016
-0.00430283
0.00316482
-0.00343113
0.00327381
-0.00269107
0.00335925
-0.0020795
0.00342422
-0.00158464
0.00347256
-0.00119196
0.00350791
-0.000885907
0.0035334
-0.00065104
0.00355156
-0.000473464
0.00356436
-0.000340977
0.0035733
-0.000243343
0.0035795
-0.000172162
0.00358376
-0.00012081
0.00358668
-8.41312e-05
0.00358866
-5.8165e-05
0.00358999
-3.99388e-05
0.00359089
-2.72459e-05
0.00359149
-1.84712e-05
0.00359189
-1.24485e-05
0.00359215
-8.34196e-06
0.00359232
-5.55988e-06
0.00359244
-3.68613e-06
0.00359251
-2.43118e-06
0.00359256
-1.59534e-06
0.00359259
-1.04154e-06
0.00359261
-6.764e-07
0.00359262
-4.36729e-07
0.00359263
-2.80187e-07
0.00359264
-1.78365e-07
0.00359264
-1.12423e-07
0.00359264
-6.99163e-08
0.00359264
-4.26356e-08
0.00359264
-2.52239e-08
0.00359264
-1.42586e-08
0.00359264
-7.34544e-09
0.00359264
-2.99647e-09
0.00359264
-3.53845e-10
0.00359264
1.23446e-09
0.00359264
2.15787e-09
0.00359264
2.67116e-09
0.00359264
2.9471e-09
0.00359264
3.10598e-09
0.00359264
2.83703e-09
0.00359264
2.53484e-09
0.00359264
2.57638e-09
0.00359264
2.54495e-09
0.00359264
2.56977e-09
0.00359264
1.8321e-09
0.00359264
1.09642e-09
0.00359264
1.15578e-09
0.00359264
1.15779e-09
0.00359264
1.17829e-09
0.00359264
1.34341e-09
0.00359264
1.97649e-11
0.00359264
-1.29077e-09
0.00359264
-1.09386e-09
0.00359264
-1.09351e-09
0.00359264
-1.14215e-09
0.00359264
-1.13759e-09
0.00359265
-9.85955e-10
0.00359265
-5.86353e-10
0.00359265
2.44378e-10
0.00359265
1.735e-09
0.00359265
4.18021e-09
0.00359265
8.06197e-09
0.00359265
1.40548e-08
0.00359265
2.31044e-08
0.00359265
3.65296e-08
0.00359265
5.61446e-08
0.00359264
8.44064e-08
0.00359264
1.24583e-07
0.00359263
1.80932e-07
0.00359263
2.58882e-07
0.00359261
3.65131e-07
0.00359259
5.07666e-07
0.00359257
6.9561e-07
0.00359253
9.38749e-07
0.00359248
1.24667e-06
0.00359242
1.62727e-06
0.00359234
2.08461e-06
0.00359224
2.61764e-06
0.00359214
3.22706e-06
0.00359203
3.93382e-06
0.00359196
4.74908e-06
0.00359196
5.47622e-06
0.00359206
5.86573e-06
0.00359249
7.66159e-06
0.00359427
1.4457e-05
0.00359681
1.72465e-05
0.00359659
6.36967e-06
0.00361261
3.4747e-05
2.559e-05
0.00366657
-0.00860653
0.00269144
-0.00891584
0.00193731
-0.00945596
0.00141044
-0.00927896
0.00111313
-0.00844087
0.000975209
-0.00739896
0.000928436
-0.00633608
0.000929423
-0.00529658
0.000951778
-0.00432519
0.000980392
-0.00345974
0.00100766
-0.00271834
0.00103054
-0.00210238
0.0010483
-0.00160241
0.00106146
-0.00120512
0.00107086
-0.000895311
0.0010774
-0.000657578
0.00108186
-0.000477922
0.00108485
-0.000343966
0.00108682
-0.00024531
0.0010881
-0.000173444
0.00108893
-0.00012164
0.00108946
-8.46622e-05
0.0010898
-5.85031e-05
0.00109001
-4.01505e-05
0.00109014
-2.73765e-05
0.00109022
-1.85528e-05
0.00109027
-1.24987e-05
0.0010903
-8.37231e-06
0.00109032
-5.57808e-06
0.00109033
-3.69694e-06
0.00109034
-2.43747e-06
0.00109034
-1.59889e-06
0.00109034
-1.04343e-06
0.00109035
-6.77285e-07
0.00109035
-4.37028e-07
0.00109035
-2.80141e-07
0.00109035
-1.78122e-07
0.00109035
-1.12071e-07
0.00109035
-6.95064e-08
0.00109035
-4.22092e-08
0.00109035
-2.48052e-08
0.00109035
-1.38242e-08
0.00109034
-6.9112e-09
0.00109034
-2.58821e-09
0.00109034
3.65862e-11
0.00109034
1.60435e-09
0.00109034
2.50608e-09
0.00109034
2.99553e-09
0.00109034
3.2413e-09
0.00109034
3.34552e-09
0.00109034
3.10168e-09
0.00109034
2.81637e-09
0.00109034
2.77159e-09
0.00109034
2.68545e-09
0.00109034
2.61695e-09
0.00109034
1.97391e-09
0.00109034
1.32503e-09
0.00109034
1.26125e-09
0.00109034
1.18542e-09
0.00109034
1.12165e-09
0.00109034
1.11875e-09
0.00109034
-2.09607e-11
0.00109034
-1.16862e-09
0.00109034
-1.16763e-09
0.00109035
-1.24585e-09
0.00109035
-1.3473e-09
0.00109035
-1.38851e-09
0.00109035
-1.28169e-09
0.00109035
-9.23616e-10
0.00109035
-1.36316e-10
0.00109035
1.309e-09
0.00109035
3.71608e-09
0.00109035
7.56688e-09
0.00109035
1.35401e-08
0.00109035
2.2589e-08
0.00109035
3.60437e-08
0.00109035
5.57356e-08
0.00109035
8.4147e-08
0.00109035
1.24583e-07
0.00109035
1.81355e-07
0.00109035
2.5996e-07
0.00109035
3.67191e-07
0.00109035
5.11147e-07
0.00109034
7.01063e-07
0.00109033
9.46793e-07
0.00109032
1.25784e-06
0.00109031
1.6417e-06
0.00109029
2.10129e-06
0.00109028
2.63332e-06
0.00109027
3.23406e-06
0.00109029
3.91492e-06
0.00109037
4.66823e-06
0.00109056
5.28789e-06
0.00109087
5.55182e-06
0.00109152
7.01033e-06
0.00109347
1.25058e-05
0.00109631
1.4405e-05
0.00109713
5.55966e-06
0.00110872
2.31562e-05
1.48774e-05
0.00366405
-0.00727058
0.00254936
-0.00780115
0.0015857
-0.0084923
0.000822639
-0.0085159
0.000286923
-0.00790516
-7.1924e-05
-0.00704012
-0.000311994
-0.00609601
-0.000473455
-0.00513512
-0.000583508
-0.00421513
-0.000660208
-0.00338304
-0.00071502
-0.00266353
-0.000755289
-0.00206211
-0.000785373
-0.00157232
-0.000807915
-0.00118258
-0.000824876
-0.000878349
-0.000837575
-0.000644879
-0.000847006
-0.000468491
-0.000853963
-0.00033701
-0.000859071
-0.000240201
-0.000862771
-0.000169745
-0.000865415
-0.000118996
-0.000867291
-8.27855e-05
-0.000868612
-5.71825e-05
-0.000869534
-3.92283e-05
-0.000870173
-2.67373e-05
-0.000870612
-1.81135e-05
-0.000870912
-1.21988e-05
-0.000871115
-8.16892e-06
-0.000871252
-5.44091e-06
-0.000871344
-3.60494e-06
-0.000871405
-2.37609e-06
-0.000871445
-1.5581e-06
-0.000871472
-1.0164e-06
-0.00087149
-6.59392e-07
-0.000871502
-4.25189e-07
-0.000871509
-2.72285e-07
-0.000871515
-1.72878e-07
-0.000871518
-1.08535e-07
-0.00087152
-6.7083e-08
-0.000871522
-4.05173e-08
-0.000871523
-2.35949e-08
-0.000871524
-1.2907e-08
-0.000871524
-6.1892e-09
-0.000871525
-2.01051e-09
-0.000871525
5.20687e-10
-0.000871525
2.02109e-09
-0.000871525
2.87229e-09
-0.000871525
3.32044e-09
-0.000871526
3.52625e-09
-0.000871526
3.57858e-09
-0.000871526
3.347e-09
-0.000871526
3.06859e-09
-0.000871526
2.95231e-09
-0.000871526
2.81469e-09
-0.000871526
2.67148e-09
-0.000871526
2.09994e-09
-0.000871526
1.51673e-09
-0.000871526
1.35577e-09
-0.000871526
1.20793e-09
-0.000871525
1.06638e-09
-0.000871525
9.314e-10
-0.000871525
-6.46941e-11
-0.000871525
-1.0827e-09
-0.000871525
-1.23564e-09
-0.000871524
-1.3914e-09
-0.000871524
-1.54969e-09
-0.000871523
-1.64414e-09
-0.000871523
-1.59423e-09
-0.000871522
-1.29807e-09
-0.000871522
-5.86547e-10
-0.000871521
7.63145e-10
-0.00087152
3.05348e-09
-0.000871519
6.75338e-09
-0.000871518
1.25267e-08
-0.000871517
2.13069e-08
-0.000871515
3.43968e-08
-0.000871513
5.35916e-08
-0.00087151
8.13261e-08
-0.000871506
1.20844e-07
-0.000871501
1.76381e-07
-0.000871494
2.53338e-07
-0.000871485
3.58392e-07
-0.000871473
4.99501e-07
-0.000871458
6.85718e-07
-0.000871438
9.26643e-07
-0.000871411
1.23139e-06
-0.000871376
1.60675e-06
-0.000871329
2.05446e-06
-0.000871265
2.56907e-06
-0.000871173
3.14279e-06
-0.000871036
3.7779e-06
-0.000870817
4.44928e-06
-0.000870475
4.94608e-06
-0.000870001
5.07751e-06
-0.000869199
6.20848e-06
-0.000867203
1.05095e-05
-0.000864375
1.15771e-05
-0.000863155
4.34018e-06
-0.00085517
1.51708e-05
8.22603e-06
0.00373584
-0.00600642
0.00257915
-0.00664446
0.00149849
-0.00741165
0.000572093
-0.0075895
-0.000150403
-0.00718266
-0.00069625
-0.00649427
-0.00110821
-0.00568405
-0.00141916
-0.00482417
-0.00165399
-0.0039803
-0.00183159
-0.00320544
-0.00196607
-0.00252905
-0.00206788
-0.0019603
-0.00214463
-0.00149558
-0.00220219
-0.00112501
-0.00224509
-0.000835451
-0.0022767
-0.00061327
-0.00229981
-0.000445383
-0.00231655
-0.000320265
-0.00232859
-0.000228166
-0.00233716
-0.000161174
-0.00234321
-0.000112946
-0.00234744
-7.85486e-05
-0.00235039
-5.42374e-05
-0.00235242
-3.71959e-05
-0.00235381
-2.53443e-05
-0.00235476
-1.71649e-05
-0.0023554
-1.15568e-05
-0.00235583
-7.73705e-06
-0.00235612
-5.15193e-06
-0.00235632
-3.41256e-06
-0.00235644
-2.24864e-06
-0.00235653
-1.47403e-06
-0.00235658
-9.61152e-07
-0.00235662
-6.23186e-07
-0.00235664
-4.01517e-07
-0.00235666
-2.56818e-07
-0.00235667
-1.62764e-07
-0.00235667
-1.019e-07
-0.00235668
-6.27011e-08
-0.00235668
-3.75954e-08
-0.00235668
-2.16171e-08
-0.00235668
-1.15225e-08
-0.00235668
-5.19001e-09
-0.00235669
-1.27119e-09
-0.00235669
1.09293e-09
-0.00235669
2.48055e-09
-0.00235669
3.25331e-09
-0.00235669
3.64347e-09
-0.00235669
3.8004e-09
-0.00235669
3.80221e-09
-0.00235669
3.57176e-09
-0.00235669
3.29197e-09
-0.00235669
3.11708e-09
-0.00235669
2.93249e-09
-0.00235669
2.72998e-09
-0.00235669
2.21006e-09
-0.00235669
1.67422e-09
-0.00235669
1.43788e-09
-0.00235669
1.22591e-09
-0.00235669
1.01501e-09
-0.00235669
7.77684e-10
-0.00235669
-1.10049e-10
-0.00235669
-1.02846e-09
-0.00235669
-1.30072e-09
-0.00235669
-1.53068e-09
-0.00235669
-1.74838e-09
-0.00235668
-1.90253e-09
-0.00235668
-1.92081e-09
-0.00235668
-1.70613e-09
-0.00235668
-1.10151e-09
-0.00235668
1.0394e-10
-0.00235668
2.20113e-09
-0.00235668
5.63352e-09
-0.00235668
1.10313e-08
-0.00235668
1.92815e-08
-0.00235667
3.16218e-08
-0.00235667
4.97591e-08
-0.00235666
7.6009e-08
-0.00235666
1.13459e-07
-0.00235665