/*--------------------------------*- C++ -*----------------------------------*\
| =========                 |                                                 |
| \\      /  F ield         | foam-extend: Open Source CFD                    |
|  \\    /   O peration     | Version:     5.0                                |
|   \\  /    A nd           | Web:         http://www.foam-extend.org         |
|    \\/     M anipulation  |                                                 |
\*---------------------------------------------------------------------------*/
FoamFile
{
    version     2.0;
    format      ascii;
    class       volVectorField;
    location    "0.02";
    object      U;
}
// * * * * * * * * * * * * * * * * * * * * * * * * * * * * * * * * * * * * * //

dimensions      [0 1 -1 0 0 0 0];

internalField   nonuniform List<vector> 
4000
(
(0.460814 0.0232817 0)
(0.883526 0.013578 0)
(0.826251 -0.00720051 0)
(0.912585 -0.0140411 0)
(1.01919 -0.00953568 0)
(1.0859 -0.00594201 0)
(1.13093 -0.00491765 0)
(1.16993 -0.00442942 0)
(1.20403 -0.00377258 0)
(1.23205 -0.00309015 0)
(1.25446 -0.00249882 0)
(1.27226 -0.00200297 0)
(1.28629 -0.00158612 0)
(1.29721 -0.00123947 0)
(1.30561 -0.000954821 0)
(1.31197 -0.000725642 0)
(1.31674 -0.000544376 0)
(1.32027 -0.000403538 0)
(1.32285 -0.000295794 0)
(1.32472 -0.000214527 0)
(1.32606 -0.000154026 0)
(1.32702 -0.000109565 0)
(1.32769 -7.72551e-05 0)
(1.32816 -5.40311e-05 0)
(1.32848 -3.7495e-05 0)
(1.32871 -2.58295e-05 0)
(1.32886 -1.76713e-05 0)
(1.32897 -1.2012e-05 0)
(1.32904 -8.11351e-06 0)
(1.32909 -5.44734e-06 0)
(1.32912 -3.63687e-06 0)
(1.32914 -2.41543e-06 0)
(1.32915 -1.59505e-06 0)
(1.32916 -1.04704e-06 0)
(1.32917 -6.83824e-07 0)
(1.32917 -4.44338e-07 0)
(1.32917 -2.86837e-07 0)
(1.32917 -1.8378e-07 0)
(1.32918 -1.16342e-07 0)
(1.32918 -7.32675e-08 0)
(1.32918 -4.63256e-08 0)
(1.32918 -2.70635e-08 0)
(1.32918 -1.48275e-08 0)
(1.32918 -8.36737e-09 0)
(1.32918 -3.66793e-09 0)
(1.32918 -7.01331e-10 0)
(1.32918 1.13843e-09 0)
(1.32918 2.26526e-09 0)
(1.32918 2.74355e-09 0)
(1.32918 1.00955e-09 0)
(1.32918 3.77711e-09 0)
(1.32918 6.44928e-09 0)
(1.32918 3.25129e-09 0)
(1.32918 2.74471e-09 0)
(1.32918 -1.69858e-09 0)
(1.32918 3.59139e-09 0)
(1.32918 8.74719e-09 0)
(1.32918 3.08059e-09 0)
(1.32918 2.62012e-09 0)
(1.32918 1.21351e-09 0)
(1.32918 -6.74493e-09 0)
(1.32918 3.1976e-09 0)
(1.32918 1.10857e-08 0)
(1.32918 1.89219e-09 0)
(1.32918 1.59785e-09 0)
(1.32918 1.96453e-09 0)
(1.32918 2.47566e-09 0)
(1.32918 3.17593e-09 0)
(1.32918 4.35978e-09 0)
(1.32918 6.10884e-09 0)
(1.32918 8.64821e-09 0)
(1.32918 1.26423e-08 0)
(1.32918 1.86085e-08 0)
(1.32918 2.73168e-08 0)
(1.32918 3.99022e-08 0)
(1.32918 5.78686e-08 0)
(1.32918 8.32039e-08 0)
(1.32918 1.1844e-07 0)
(1.32917 1.6669e-07 0)
(1.32917 2.31927e-07 0)
(1.32917 3.18346e-07 0)
(1.32917 4.30611e-07 0)
(1.32916 5.73778e-07 0)
(1.32916 7.51745e-07 0)
(1.32915 9.67515e-07 0)
(1.32914 1.22158e-06 0)
(1.32913 1.50983e-06 0)
(1.32912 1.82081e-06 0)
(1.3291 2.16172e-06 0)
(1.32908 2.71979e-06 0)
(1.32906 4.14581e-06 0)
(1.32901 6.43612e-06 0)
(1.32896 3.31106e-06 0)
(1.32903 -1.44806e-05 0)
(1.32917 2.36556e-06 0)
(1.32821 0.000176597 0)
(1.32644 0.000180756 0)
(1.3315 -0.00081893 0)
(1.32873 0.000364166 0)
(1.32471 0.00111402 0)
(0.76587 -0.00865196 0)
(1.77465 0.00549688 0)
(1.83594 -0.0396711 0)
(2.03397 -0.0538629 0)
(2.27786 -0.0395248 0)
(2.45752 -0.0277012 0)
(2.58564 -0.0225502 0)
(2.68998 -0.0191752 0)
(2.77771 -0.015856 0)
(2.84923 -0.0128173 0)
(2.9062 -0.010249 0)
(2.95107 -0.00811265 0)
(2.98608 -0.00634395 0)
(3.01308 -0.00489826 0)
(3.03364 -0.00373299 0)
(3.0491 -0.00280946 0)
(3.0606 -0.00208921 0)
(3.06905 -0.0015363 0)
(3.0752 -0.00111783 0)
(3.07963 -0.000805212 0)
(3.0828 -0.000574518 0)
(3.08503 -0.000406312 0)
(3.0866 -0.000284955 0)
(3.08769 -0.000198292 0)
(3.08845 -0.000136967 0)
(3.08896 -9.39459e-05 0)
(3.08931 -6.40092e-05 0)
(3.08955 -4.33413e-05 0)
(3.08971 -2.91693e-05 0)
(3.08982 -1.95178e-05 0)
(3.08989 -1.29879e-05 0)
(3.08994 -8.59846e-06 0)
(3.08997 -5.66082e-06 0)
(3.08999 -3.70526e-06 0)
(3.09001 -2.41313e-06 0)
(3.09001 -1.56325e-06 0)
(3.09002 -1.00587e-06 0)
(3.09002 -6.42342e-07 0)
(3.09003 -4.05303e-07 0)
(3.09003 -2.5362e-07 0)
(3.09003 -1.58269e-07 0)
(3.09003 -9.21021e-08 0)
(3.09003 -5.03643e-08 0)
(3.09003 -2.72542e-08 0)
(3.09003 -1.10185e-08 0)
(3.09003 -9.71137e-10 0)
(3.09003 5.25439e-09 0)
(3.09003 8.99911e-09 0)
(3.09003 1.06934e-08 0)
(3.09003 5.47111e-09 0)
(3.09003 1.28821e-08 0)
(3.09003 2.0705e-08 0)
(3.09003 1.29716e-08 0)
(3.09003 1.18772e-08 0)
(3.09003 -2.40076e-09 0)
(3.09003 1.14075e-08 0)
(3.09003 2.52601e-08 0)
(3.09003 1.00482e-08 0)
(3.09003 9.40055e-09 0)
(3.09003 6.10138e-09 0)
(3.09003 -1.94245e-08 0)
(3.09003 8.39889e-09 0)
(3.09003 3.24868e-08 0)
(3.09003 4.45237e-09 0)
(3.09003 3.91589e-09 0)
(3.09003 4.98558e-09 0)
(3.09003 6.48065e-09 0)
(3.09003 8.67527e-09 0)
(3.09003 1.25707e-08 0)
(3.09003 1.8483e-08 0)
(3.09003 2.73936e-08 0)
(3.09003 4.15722e-08 0)
(3.09003 6.28932e-08 0)
(3.09003 9.44009e-08 0)
(3.09003 1.4042e-07 0)
(3.09003 2.06768e-07 0)
(3.09003 3.01195e-07 0)
(3.09003 4.33841e-07 0)
(3.09002 6.17486e-07 0)
(3.09002 8.68534e-07 0)
(3.09002 1.20554e-06 0)
(3.09001 1.65005e-06 0)
(3.09 2.22642e-06 0)
(3.08999 2.9576e-06 0)
(3.08997 3.8652e-06 0)
(3.08995 4.96581e-06 0)
(3.08992 6.2665e-06 0)
(3.08989 7.7523e-06 0)
(3.08985 9.42425e-06 0)
(3.08979 1.16488e-05 0)
(3.08972 1.60043e-05 0)
(3.08961 2.33491e-05 0)
(3.08952 2.03668e-05 0)
(3.08961 -1.7294e-05 0)
(3.08954 2.48091e-05 0)
(3.08765 0.000467783 0)
(3.08591 0.000498399 0)
(3.09544 -0.00204602 0)
(3.08182 0.00155057 0)
(3.08015 0.00346169 0)
(0.76475 -0.175568 0)
(2.1118 -0.0759015 0)
(2.34467 -0.112568 0)
(2.61697 -0.127535 0)
(2.92939 -0.100043 0)
(3.17689 -0.0742479 0)
(3.36112 -0.0595525 0)
(3.50847 -0.0493308 0)
(3.62912 -0.0403094 0)
(3.72605 -0.0323766 0)
(3.80252 -0.0257031 0)
(3.86216 -0.0201862 0)
(3.90822 -0.0156686 0)
(3.94337 -0.0120146 0)
(3.96989 -0.00909985 0)
(3.98966 -0.00680982 0)
(4.00424 -0.00503811 0)
(4.01489 -0.00368738 0)
(4.02257 -0.00267132 0)
(4.02808 -0.00191651 0)
(4.03198 -0.0013624 0)
(4.03473 -0.00096021 0)
(4.03664 -0.000671278 0)
(4.03797 -0.000465724 0)
(4.03888 -0.000320801 0)
(4.03951 -0.000219464 0)
(4.03993 -0.000149162 0)
(4.04022 -0.000100761 0)
(4.04041 -6.76629e-05 0)
(4.04053 -4.51796e-05 0)
(4.04062 -3.00032e-05 0)
(4.04068 -1.98222e-05 0)
(4.04071 -1.30246e-05 0)
(4.04074 -8.50978e-06 0)
(4.04075 -5.53171e-06 0)
(4.04076 -3.57585e-06 0)
(4.04077 -2.29573e-06 0)
(4.04077 -1.46243e-06 0)
(4.04078 -9.20768e-07 0)
(4.04078 -5.73174e-07 0)
(4.04078 -3.52805e-07 0)
(4.04078 -2.05278e-07 0)
(4.04078 -1.12481e-07 0)
(4.04078 -5.79965e-08 0)
(4.04078 -2.15868e-08 0)
(4.04078 8.24294e-10 0)
(4.04078 1.46848e-08 0)
(4.04078 2.28312e-08 0)
(4.04078 2.64915e-08 0)
(4.04078 1.81621e-08 0)
(4.04078 2.99002e-08 0)
(4.04078 4.29271e-08 0)
(4.04078 3.24099e-08 0)
(4.04078 3.03173e-08 0)
(4.04078 4.76357e-09 0)
(4.04078 2.46052e-08 0)
(4.04078 4.62751e-08 0)
(4.04078 2.3304e-08 0)
(4.04078 2.19695e-08 0)
(4.04078 1.67943e-08 0)
(4.04078 -2.86981e-08 0)
(4.04078 1.47741e-08 0)
(4.04078 5.63777e-08 0)
(4.04078 8.88819e-09 0)
(4.04078 7.01011e-09 0)
(4.04078 8.88689e-09 0)
(4.04078 1.18005e-08 0)
(4.04078 1.64413e-08 0)
(4.04078 2.48446e-08 0)
(4.04078 3.79733e-08 0)
(4.04078 5.84225e-08 0)
(4.04078 9.09968e-08 0)
(4.04078 1.40244e-07 0)
(4.04078 2.13606e-07 0)
(4.04078 3.21483e-07 0)
(4.04078 4.77953e-07 0)
(4.04078 7.01892e-07 0)
(4.04077 1.01821e-06 0)
(4.04077 1.45897e-06 0)
(4.04077 2.06489e-06 0)
(4.04076 2.88443e-06 0)
(4.04075 3.97479e-06 0)
(4.04074 5.40068e-06 0)
(4.04073 7.22915e-06 0)
(4.04071 9.52502e-06 0)
(4.04068 1.23456e-05 0)
(4.04064 1.57331e-05 0)
(4.04059 1.97116e-05 0)
(4.04054 2.43868e-05 0)
(4.04046 3.04632e-05 0)
(4.04036 4.00444e-05 0)
(4.04023 5.29179e-05 0)
(4.04011 5.00868e-05 0)
(4.04012 1.26467e-05 0)
(4.03988 0.000131392 0)
(4.03789 0.000788718 0)
(4.03711 0.000645692 0)
(4.04747 -0.00271741 0)
(4.02323 0.00383055 0)
(4.02678 0.00620385 0)
(0.63443 -0.350436 0)
(2.10269 -0.202242 0)
(2.42611 -0.211317 0)
(2.72841 -0.211536 0)
(3.06645 -0.170416 0)
(3.34295 -0.13151 0)
(3.5541 -0.105493 0)
(3.7231 -0.0861187 0)
(3.85996 -0.0696767 0)
(3.96886 -0.0556304 0)
(4.05412 -0.0439109 0)
(4.1201 -0.0342741 0)
(4.17066 -0.0264404 0)
(4.20894 -0.0201553 0)
(4.2376 -0.0151828 0)
(4.25882 -0.0113052 0)
(4.27436 -0.00832562 0)
(4.28563 -0.00606783 0)
(4.29373 -0.00437863 0)
(4.2995 -0.00313006 0)
(4.30357 -0.00221764 0)
(4.30642 -0.00155813 0)
(4.3084 -0.00108613 0)
(4.30976 -0.000751514 0)
(4.3107 -0.000516353 0)
(4.31133 -0.000352402 0)
(4.31177 -0.000238982 0)
(4.31205 -0.000161095 0)
(4.31225 -0.000107962 0)
(4.31238 -7.19529e-05 0)
(4.31246 -4.76976e-05 0)
(4.31252 -3.14559e-05 0)
(4.31256 -2.06344e-05 0)
(4.31258 -1.34631e-05 0)
(4.3126 -8.73937e-06 0)
(4.31261 -5.64045e-06 0)
(4.31261 -3.61612e-06 0)
(4.31262 -2.30073e-06 0)
(4.31262 -1.448e-06 0)
(4.31262 -8.99125e-07 0)
(4.31262 -5.48746e-07 0)
(4.31262 -3.21545e-07 0)
(4.31262 -1.79308e-07 0)
(4.31262 -9.15597e-08 0)
(4.31262 -3.48913e-08 0)
(4.31262 -2.61567e-10 0)
(4.31262 2.09167e-08 0)
(4.31262 3.33381e-08 0)
(4.31262 3.96132e-08 0)
(4.31262 3.3397e-08 0)
(4.31262 4.22003e-08 0)
(4.31262 5.29868e-08 0)
(4.31262 4.68186e-08 0)
(4.31262 4.65317e-08 0)
(4.31262 2.14261e-08 0)
(4.31262 3.13335e-08 0)
(4.31262 4.57738e-08 0)
(4.31262 2.82309e-08 0)
(4.31262 2.90756e-08 0)
(4.31262 2.74073e-08 0)
(4.31262 -1.72526e-08 0)
(4.31262 1.14596e-08 0)
(4.31262 4.42882e-08 0)
(4.31262 1.43536e-09 0)
(4.31262 8.01192e-10 0)
(4.31262 3.48929e-09 0)
(4.31262 7.4204e-09 0)
(4.31262 1.41113e-08 0)
(4.31262 2.65899e-08 0)
(4.31262 4.67411e-08 0)
(4.31262 7.88581e-08 0)
(4.31262 1.30243e-07 0)
(4.31262 2.08481e-07 0)
(4.31262 3.25806e-07 0)
(4.31262 4.99394e-07 0)
(4.31262 7.52515e-07 0)
(4.31262 1.11667e-06 0)
(4.31262 1.6336e-06 0)
(4.31262 2.35787e-06 0)
(4.31261 3.35839e-06 0)
(4.31261 4.7207e-06 0)
(4.3126 6.54625e-06 0)
(4.31258 8.95115e-06 0)
(4.31257 1.20624e-05 0)
(4.31255 1.60083e-05 0)
(4.31251 2.09105e-05 0)
(4.31247 2.68765e-05 0)
(4.31242 3.39954e-05 0)
(4.31236 4.2442e-05 0)
(4.31227 5.29767e-05 0)
(4.31217 6.77284e-05 0)
(4.31202 8.68099e-05 0)
(4.31187 9.38334e-05 0)
(4.31184 7.71979e-05 0)
(4.31157 0.000232041 0)
(4.30965 0.000914992 0)
(4.3095 0.000757341 0)
(4.32031 -0.00225791 0)
(4.28864 0.00600055 0)
(4.30364 0.00782634 0)
(0.465769 -0.492954 0)
(1.90591 -0.332031 0)
(2.21136 -0.31782 0)
(2.49173 -0.298981 0)
(2.82239 -0.243639 0)
(3.09739 -0.192441 0)
(3.31059 -0.155103 0)
(3.48298 -0.125908 0)
(3.62286 -0.10128 0)
(3.73389 -0.0805018 0)
(3.82048 -0.0632661 0)
(3.8872 -0.0491592 0)
(3.93809 -0.0377564 0)
(3.97644 -0.0286574 0)
(4.005 -0.0214998 0)
(4.02604 -0.0159484 0)
(4.04139 -0.0117039 0)
(4.05247 -0.00850213 0)
(4.0604 -0.00611684 0)
(4.06602 -0.00436047 0)
(4.06997 -0.00308146 0)
(4.07273 -0.00215991 0)
(4.07464 -0.0015023 0)
(4.07596 -0.00103734 0)
(4.07686 -0.00071138 0)
(4.07747 -0.000484623 0)
(4.07788 -0.000328095 0)
(4.07815 -0.000220815 0)
(4.07834 -0.000147763 0)
(4.07846 -9.8339e-05 0)
(4.07854 -6.5101e-05 0)
(4.0786 -4.28734e-05 0)
(4.07863 -2.80884e-05 0)
(4.07865 -1.83071e-05 0)
(4.07867 -1.18695e-05 0)
(4.07868 -7.64953e-06 0)
(4.07868 -4.89716e-06 0)
(4.07869 -3.11077e-06 0)
(4.07869 -1.95508e-06 0)
(4.07869 -1.2097e-06 0)
(4.07869 -7.31632e-07 0)
(4.07869 -4.28764e-07 0)
(4.07869 -2.39505e-07 0)
(4.07869 -1.18856e-07 0)
(4.07869 -4.2852e-08 0)
(4.07869 3.4218e-09 0)
(4.07869 3.136e-08 0)
(4.07869 4.78277e-08 0)
(4.07869 5.74432e-08 0)
(4.07869 6.28897e-08 0)
(4.07869 5.79649e-08 0)
(4.07869 5.48324e-08 0)
(4.07869 6.2257e-08 0)
(4.07869 6.61035e-08 0)
(4.07869 6.31576e-08 0)
(4.07869 4.10964e-08 0)
(4.07869 2.4742e-08 0)
(4.07869 3.20673e-08 0)
(4.07869 3.76792e-08 0)
(4.07869 4.38216e-08 0)
(4.07869 4.11256e-08 0)
(4.07869 9.36966e-09 0)
(4.07869 -1.34239e-08 0)
(4.07869 -1.01387e-08 0)
(4.07869 -5.98829e-09 0)
(4.07869 -2.53993e-09 0)
(4.07869 2.06987e-09 0)
(4.07869 1.0411e-08 0)
(4.07869 2.63848e-08 0)
(4.07869 5.30056e-08 0)
(4.07869 9.63359e-08 0)
(4.07869 1.65876e-07 0)
(4.07869 2.72464e-07 0)
(4.07869 4.33213e-07 0)
(4.07869 6.72161e-07 0)
(4.07869 1.02201e-06 0)
(4.07869 1.5273e-06 0)
(4.07869 2.24737e-06 0)
(4.07869 3.26028e-06 0)
(4.07868 4.665e-06 0)
(4.07868 6.5869e-06 0)
(4.07867 9.17585e-06 0)
(4.07866 1.26052e-05 0)
(4.07864 1.70702e-05 0)
(4.07862 2.27734e-05 0)
(4.07859 2.99148e-05 0)
(4.07855 3.86788e-05 0)
(4.07849 4.92235e-05 0)
(4.07843 6.17672e-05 0)
(4.07834 7.70714e-05 0)
(4.07823 9.73612e-05 0)
(4.07808 0.000123735 0)
(4.07792 0.000143038 0)
(4.07791 0.000144844 0)
(4.0777 0.000306811 0)
(4.07576 0.000971242 0)
(4.07586 0.000915766 0)
(4.08787 -0.00150308 0)
(4.05179 0.00709427 0)
(4.08417 0.00822199 0)
(0.30257 -0.583843 0)
(1.63571 -0.438768 0)
(1.8462 -0.412466 0)
(2.05898 -0.377888 0)
(2.35266 -0.311359 0)
(2.60152 -0.250294 0)
(2.79679 -0.203043 0)
(2.95733 -0.16468 0)
(3.08903 -0.132177 0)
(3.19388 -0.104821 0)
(3.27563 -0.0821583 0)
(3.33852 -0.0636419 0)
(3.38636 -0.0487209 0)
(3.4223 -0.0368599 0)
(3.44898 -0.0275676 0)
(3.46856 -0.0203897 0)
(3.4828 -0.0149221 0)
(3.49304 -0.010812 0)
(3.50034 -0.00776031 0)
(3.50551 -0.00551995 0)
(3.50913 -0.00389297 0)
(3.51165 -0.00272363 0)
(3.51339 -0.00189112 0)
(3.51459 -0.00130373 0)
(3.5154 -0.000892727 0)
(3.51596 -0.000607306 0)
(3.51633 -0.000410614 0)
(3.51658 -0.000276014 0)
(3.51675 -0.000184486 0)
(3.51686 -0.000122643 0)
(3.51693 -8.11056e-05 0)
(3.51698 -5.33569e-05 0)
(3.51701 -3.4923e-05 0)
(3.51703 -2.27424e-05 0)
(3.51704 -1.47302e-05 0)
(3.51705 -9.48265e-06 0)
(3.51706 -6.06391e-06 0)
(3.51706 -3.84642e-06 0)
(3.51706 -2.41358e-06 0)
(3.51706 -1.48936e-06 0)
(3.51706 -8.95606e-07 0)
(3.51706 -5.24223e-07 0)
(3.51706 -2.91332e-07 0)
(3.51706 -1.40738e-07 0)
(3.51706 -4.78382e-08 0)
(3.51706 8.74401e-09 0)
(3.51706 4.26465e-08 0)
(3.51706 6.26602e-08 0)
(3.51706 7.5246e-08 0)
(3.51706 9.22175e-08 0)
(3.51706 7.37387e-08 0)
(3.51706 5.62363e-08 0)
(3.51706 7.59145e-08 0)
(3.51706 8.29782e-08 0)
(3.51706 1.03259e-07 0)
(3.51706 5.10552e-08 0)
(3.51706 3.61191e-09 0)
(3.51706 3.42061e-08 0)
(3.51706 4.41401e-08 0)
(3.51706 5.67517e-08 0)
(3.51706 9.8821e-08 0)
(3.51706 7.48079e-09 0)
(3.51706 -7.40916e-08 0)
(3.51706 -2.40261e-08 0)
(3.51706 -1.50562e-08 0)
(3.51706 -1.11642e-08 0)
(3.51706 -6.27277e-09 0)
(3.51706 3.28893e-09 0)
(3.51706 2.18614e-08 0)
(3.51706 5.40091e-08 0)
(3.51707 1.07634e-07 0)
(3.51707 1.93544e-07 0)
(3.51706 3.25957e-07 0)
(3.51706 5.26774e-07 0)
(3.51706 8.26345e-07 0)
(3.51706 1.26636e-06 0)
(3.51706 1.90375e-06 0)
(3.51706 2.81487e-06 0)
(3.51706 4.10036e-06 0)
(3.51705 5.88886e-06 0)
(3.51705 8.34426e-06 0)
(3.51704 1.16644e-05 0)
(3.51703 1.60807e-05 0)
(3.51702 2.18563e-05 0)
(3.51699 2.92703e-05 0)
(3.51697 3.86025e-05 0)
(3.51693 5.01128e-05 0)
(3.51688 6.40188e-05 0)
(3.51682 8.05557e-05 0)
(3.51674 0.000100442 0)
(3.51664 0.000125945 0)
(3.51649 0.000159038 0)
(3.51634 0.00018923 0)
(3.51638 0.000205127 0)
(3.51627 0.000360325 0)
(3.51426 0.000979373 0)
(3.51448 0.00104702 0)
(3.52807 -0.000765192 0)
(3.4894 0.00670586 0)
(3.53359 0.0071791 0)
(0.167228 -0.623513 0)
(1.37021 -0.509664 0)
(1.4478 -0.48315 0)
(1.56391 -0.440356 0)
(1.79878 -0.367753 0)
(2.00366 -0.300255 0)
(2.16619 -0.245487 0)
(2.3032 -0.199524 0)
(2.41786 -0.160176 0)
(2.50989 -0.126936 0)
(2.58185 -0.0993513 0)
(2.63725 -0.0768114 0)
(2.67937 -0.0586757 0)
(2.71096 -0.0442898 0)
(2.73436 -0.0330492 0)
(2.75149 -0.0243903 0)
(2.7639 -0.0178125 0)
(2.77281 -0.0128806 0)
(2.77915 -0.00922811 0)
(2.78362 -0.00655279 0)
(2.78674 -0.00461405 0)
(2.78891 -0.00322339 0)
(2.79041 -0.00223508 0)
(2.79144 -0.00153893 0)
(2.79213 -0.00105254 0)
(2.79261 -0.000715239 0)
(2.79292 -0.000483096 0)
(2.79314 -0.000324427 0)
(2.79328 -0.00021665 0)
(2.79337 -0.0001439 0)
(2.79343 -9.50856e-05 0)
(2.79347 -6.25039e-05 0)
(2.7935 -4.08794e-05 0)
(2.79352 -2.66016e-05 0)
(2.79353 -1.72147e-05 0)
(2.79354 -1.10725e-05 0)
(2.79354 -7.07381e-06 0)
(2.79354 -4.4809e-06 0)
(2.79355 -2.80652e-06 0)
(2.79355 -1.72789e-06 0)
(2.79355 -1.0356e-06 0)
(2.79355 -6.0404e-07 0)
(2.79355 -3.31933e-07 0)
(2.79355 -1.56069e-07 0)
(2.79355 -4.90861e-08 0)
(2.79355 1.61572e-08 0)
(2.79355 5.50466e-08 0)
(2.79355 7.78913e-08 0)
(2.79355 9.22647e-08 0)
(2.79355 1.10943e-07 0)
(2.79355 8.9452e-08 0)
(2.79355 6.82983e-08 0)
(2.79355 8.8984e-08 0)
(2.79355 9.60836e-08 0)
(2.79355 1.19655e-07 0)
(2.79355 6.0928e-08 0)
(2.79355 5.37966e-09 0)
(2.79355 3.79068e-08 0)
(2.79355 4.89654e-08 0)
(2.79355 6.26878e-08 0)
(2.79355 1.1189e-07 0)
(2.79355 6.16006e-09 0)
(2.79355 -9.17704e-08 0)
(2.79355 -3.48704e-08 0)
(2.79355 -2.47082e-08 0)
(2.79355 -2.10216e-08 0)
(2.79355 -1.62975e-08 0)
(2.79355 -5.99268e-09 0)
(2.79355 1.41524e-08 0)
(2.79355 5.08342e-08 0)
(2.79355 1.13387e-07 0)
(2.79355 2.13104e-07 0)
(2.79355 3.67832e-07 0)
(2.79355 6.03622e-07 0)
(2.79355 9.564e-07 0)
(2.79355 1.47592e-06 0)
(2.79355 2.23025e-06 0)
(2.79355 3.31106e-06 0)
(2.79354 4.8395e-06 0)
(2.79354 6.97149e-06 0)
(2.79354 9.90587e-06 0)
(2.79353 1.38847e-05 0)
(2.79352 1.91934e-05 0)
(2.79351 2.61579e-05 0)
(2.79349 3.51279e-05 0)
(2.79346 4.64559e-05 0)
(2.79343 6.04661e-05 0)
(2.79339 7.74155e-05 0)
(2.79333 9.75274e-05 0)
(2.79326 0.000121441 0)
(2.79318 0.000151368 0)
(2.79305 0.000189709 0)
(2.79293 0.000227409 0)
(2.79303 0.000251659 0)
(2.79302 0.000394832 0)
(2.79092 0.000959236 0)
(2.79125 0.0011169 0)
(2.80642 -0.00021876 0)
(2.76611 0.00550704 0)
(2.81464 0.00550528 0)
(0.0675527 -0.619983 0)
(1.15252 -0.542592 0)
(1.09197 -0.524663 0)
(1.10081 -0.481805 0)
(1.26482 -0.408934 0)
(1.41508 -0.339001 0)
(1.535 -0.279672 0)
(1.64058 -0.228272 0)
(1.73179 -0.183626 0)
(1.80607 -0.145618 0)
(1.86448 -0.113938 0)
(1.90961 -0.0879992 0)
(1.94395 -0.0671266 0)
(1.9697 -0.0505865 0)
(1.98873 -0.037684 0)
(2.00264 -0.0277638 0)
(2.01269 -0.0202431 0)
(2.01988 -0.0146155 0)
(2.02498 -0.0104558 0)
(2.02857 -0.00741449 0)
(2.03107 -0.00521419 0)
(2.03281 -0.00363839 0)
(2.034 -0.00252011 0)
(2.03482 -0.00173344 0)
(2.03537 -0.00118447 0)
(2.03574 -0.000804181 0)
(2.036 -0.000542729 0)
(2.03616 -0.000364197 0)
(2.03628 -0.000243035 0)
(2.03635 -0.000161314 0)
(2.0364 -0.000106522 0)
(2.03643 -6.99778e-05 0)
(2.03645 -4.57396e-05 0)
(2.03646 -2.97447e-05 0)
(2.03647 -1.92346e-05 0)
(2.03648 -1.23628e-05 0)
(2.03648 -7.89046e-06 0)
(2.03648 -4.99138e-06 0)
(2.03649 -3.12044e-06 0)
(2.03649 -1.91684e-06 0)
(2.03649 -1.1458e-06 0)
(2.03649 -6.64139e-07 0)
(2.03649 -3.59714e-07 0)
(2.03649 -1.64419e-07 0)
(2.03649 -4.60853e-08 0)
(2.03649 2.59427e-08 0)
(2.03649 6.86329e-08 0)
(2.03649 9.34292e-08 0)
(2.03649 1.08583e-07 0)
(2.03649 1.2423e-07 0)
(2.03649 1.04998e-07 0)
(2.03649 8.55972e-08 0)
(2.03649 1.01268e-07 0)
(2.03649 1.06485e-07 0)
(2.03649 1.23577e-07 0)
(2.03649 7.04126e-08 0)
(2.03649 1.91211e-08 0)
(2.03649 4.31173e-08 0)
(2.03649 5.24659e-08 0)
(2.03649 6.38537e-08 0)
(2.03649 1.01209e-07 0)
(2.03649 4.85691e-09 0)
(2.03649 -8.61927e-08 0)
(2.03649 -4.26553e-08 0)
(2.03649 -3.40254e-08 0)
(2.03649 -3.13476e-08 0)
(2.03649 -2.72853e-08 0)
(2.03649 -1.68702e-08 0)
(2.03649 4.12081e-09 0)
(2.03649 4.41348e-08 0)
(2.03649 1.13413e-07 0)
(2.03649 2.23933e-07 0)
(2.03649 3.96662e-07 0)
(2.03649 6.60876e-07 0)
(2.03649 1.05723e-06 0)
(2.03649 1.64221e-06 0)
(2.03649 2.49329e-06 0)
(2.03649 3.71503e-06 0)
(2.03648 5.44595e-06 0)
(2.03648 7.86525e-06 0)
(2.03648 1.12015e-05 0)
(2.03647 1.57344e-05 0)
(2.03646 2.1796e-05 0)
(2.03645 2.9766e-05 0)
(2.03644 4.00533e-05 0)
(2.03642 5.30695e-05 0)
(2.03639 6.91854e-05 0)
(2.03636 8.86729e-05 0)
(2.03631 0.000111711 0)
(2.03626 0.000138815 0)
(2.03619 0.000172005 0)
(2.03609 0.000213605 0)
(2.03599 0.000254959 0)
(2.03617 0.000282347 0)
(2.03626 0.000411534 0)
(2.03407 0.000915878 0)
(2.03453 0.00111433 0)
(2.05106 0.00011601 0)
(2.00954 0.00418089 0)
(2.05889 0.0038919 0)
(0.0022334 -0.58478 0)
(0.998346 -0.542139 0)
(0.815702 -0.537361 0)
(0.722267 -0.501056 0)
(0.812437 -0.433127 0)
(0.904032 -0.364704 0)
(0.976442 -0.303888 0)
(1.04577 -0.249471 0)
(1.10939 -0.201346 0)
(1.16257 -0.159937 0)
(1.20479 -0.125205 0)
(1.23765 -0.0966771 0)
(1.26273 -0.0736889 0)
(1.28154 -0.0554726 0)
(1.29542 -0.0412743 0)
(1.30554 -0.0303705 0)
(1.31283 -0.0221159 0)
(1.31803 -0.0159483 0)
(1.3217 -0.0113963 0)
(1.32427 -0.00807259 0)
(1.32607 -0.00567122 0)
(1.3273 -0.00395358 0)
(1.32815 -0.00273603 0)
(1.32873 -0.00188044 0)
(1.32912 -0.00128395 0)
(1.32938 -0.00087111 0)
(1.32956 -0.000587514 0)
(1.32968 -0.000394003 0)
(1.32975 -0.000262775 0)
(1.32981 -0.000174321 0)
(1.32984 -0.000115047 0)
(1.32986 -7.554e-05 0)
(1.32988 -4.93498e-05 0)
(1.32988 -3.20738e-05 0)
(1.32989 -2.07276e-05 0)
(1.32989 -1.33131e-05 0)
(1.3299 -8.48847e-06 0)
(1.3299 -5.36228e-06 0)
(1.3299 -3.34602e-06 0)
(1.3299 -2.05029e-06 0)
(1.3299 -1.22167e-06 0)
(1.3299 -7.02135e-07 0)
(1.3299 -3.73947e-07 0)
(1.3299 -1.65208e-07 0)
(1.3299 -3.8561e-08 0)
(1.3299 3.81799e-08 0)
(1.3299 8.33608e-08 0)
(1.3299 1.09206e-07 0)
(1.3299 1.24313e-07 0)
(1.3299 1.36726e-07 0)
(1.3299 1.20157e-07 0)
(1.3299 1.028e-07 0)
(1.3299 1.12713e-07 0)
(1.3299 1.15352e-07 0)
(1.3299 1.25487e-07 0)
(1.3299 7.93195e-08 0)
(1.3299 3.41078e-08 0)
(1.3299 4.88957e-08 0)
(1.3299 5.49543e-08 0)
(1.3299 6.25252e-08 0)
(1.3299 8.7042e-08 0)
(1.3299 3.37155e-09 0)
(1.3299 -7.72271e-08 0)
(1.3299 -4.84739e-08 0)
(1.3299 -4.28166e-08 0)
(1.3299 -4.18155e-08 0)
(1.3299 -3.89181e-08 0)
(1.3299 -2.9115e-08 0)
(1.3299 -7.85392e-09 0)
(1.3299 3.4013e-08 0)
(1.3299 1.07391e-07 0)
(1.3299 2.25476e-07 0)
(1.3299 4.11172e-07 0)
(1.3299 6.962e-07 0)
(1.3299 1.12486e-06 0)
(1.3299 1.75883e-06 0)
(1.3299 2.6828e-06 0)
(1.3299 4.0113e-06 0)
(1.3299 5.89634e-06 0)
(1.3299 8.53525e-06 0)
(1.32989 1.21797e-05 0)
(1.32989 1.71393e-05 0)
(1.32989 2.3782e-05 0)
(1.32988 3.25293e-05 0)
(1.32987 4.38353e-05 0)
(1.32985 5.81533e-05 0)
(1.32983 7.58799e-05 0)
(1.32981 9.72762e-05 0)
(1.32978 0.000122446 0)
(1.32974 0.000151735 0)
(1.32969 0.000186841 0)
(1.32961 0.000229587 0)
(1.32955 0.000271066 0)
(1.3298 0.000297501 0)
(1.32998 0.000411462 0)
(1.32771 0.000851312 0)
(1.32831 0.00104728 0)
(1.34589 0.000279621 0)
(1.30339 0.00301549 0)
(1.35207 0.00258787 0)
(-0.0346807 -0.529679 0)
(0.90565 -0.515927 0)
(0.627691 -0.525493 0)
(0.446594 -0.499429 0)
(0.467613 -0.440462 0)
(0.501623 -0.376856 0)
(0.525603 -0.317378 0)
(0.556743 -0.262328 0)
(0.590611 -0.212626 0)
(0.620806 -0.169303 0)
(0.645132 -0.132683 0)
(0.664418 -0.102488 0)
(0.679239 -0.0780957 0)
(0.69038 -0.0587523 0)
(0.698582 -0.0436784 0)
(0.704531 -0.0321094 0)
(0.708787 -0.0233597 0)
(0.711802 -0.0168293 0)
(0.713915 -0.0120148 0)
(0.715385 -0.00850332 0)
(0.7164 -0.0059689 0)
(0.717095 -0.00415794 0)
(0.717568 -0.00287544 0)
(0.717889 -0.00197494 0)
(0.718105 -0.00134763 0)
(0.718249 -0.000913812 0)
(0.718345 -0.000615988 0)
(0.718409 -0.000412877 0)
(0.718451 -0.000275233 0)
(0.718478 -0.000182507 0)
(0.718496 -0.000120394 0)
(0.718508 -7.90168e-05 0)
(0.718516 -5.1598e-05 0)
(0.718521 -3.35171e-05 0)
(0.718524 -2.16474e-05 0)
(0.718526 -1.38936e-05 0)
(0.718527 -8.84951e-06 0)
(0.718528 -5.58233e-06 0)
(0.718528 -3.47602e-06 0)
(0.718528 -2.12362e-06 0)
(0.718528 -1.25997e-06 0)
(0.718529 -7.16756e-07 0)
(0.718529 -3.74046e-07 0)
(0.718529 -1.57726e-07 0)
(0.718529 -2.62978e-08 0)
(0.718529 5.29215e-08 0)
(0.718528 9.91939e-08 0)
(0.718528 1.25189e-07 0)
(0.718528 1.39588e-07 0)
(0.718528 1.48964e-07 0)
(0.718528 1.34655e-07 0)
(0.718528 1.18939e-07 0)
(0.718528 1.23444e-07 0)
(0.718528 1.23288e-07 0)
(0.718528 1.27203e-07 0)
(0.718528 8.75186e-08 0)
(0.718528 4.81652e-08 0)
(0.718528 5.46859e-08 0)
(0.718528 5.68192e-08 0)
(0.718528 6.00565e-08 0)
(0.718529 7.31633e-08 0)
(0.718529 1.62829e-09 0)
(0.718529 -6.8575e-08 0)
(0.718529 -5.30773e-08 0)
(0.718529 -5.10945e-08 0)
(0.718529 -5.22648e-08 0)
(0.718529 -5.10128e-08 0)
(0.718529 -4.25e-08 0)
(0.718529 -2.17969e-08 0)
(0.718529 2.03349e-08 0)
(0.718529 9.52427e-08 0)
(0.718529 2.17275e-07 0)
(0.718529 4.10343e-07 0)
(0.718529 7.07784e-07 0)
(0.71853 1.1563e-06 0)
(0.718529 1.82098e-06 0)
(0.718529 2.79131e-06 0)
(0.718529 4.18847e-06 0)
(0.718528 6.17352e-06 0)
(0.718528 8.95606e-06 0)
(0.718526 1.28035e-05 0)
(0.718524 1.80453e-05 0)
(0.718521 2.50744e-05 0)
(0.718517 3.434e-05 0)
(0.718511 4.63248e-05 0)
(0.718502 6.15053e-05 0)
(0.718491 8.02832e-05 0)
(0.718477 0.000102886 0)
(0.71846 0.000129318 0)
(0.718442 0.000159722 0)
(0.718416 0.000195371 0)
(0.718362 0.000237298 0)
(0.718339 0.000276048 0)
(0.718654 0.000298522 0)
(0.718902 0.000396235 0)
(0.71656 0.000769175 0)
(0.7173 0.000934169 0)
(0.735613 0.000324841 0)
(0.692246 0.0020903 0)
(0.739843 0.00162775 0)
(-0.0505749 -0.464573 0)
(0.863365 -0.472365 0)
(0.519315 -0.49461 0)
(0.269528 -0.480164 0)
(0.231068 -0.432345 0)
(0.212114 -0.375952 0)
(0.189961 -0.320158 0)
(0.183233 -0.2666 0)
(0.186873 -0.217141 0)
(0.193153 -0.173406 0)
(0.199022 -0.136114 0)
(0.204081 -0.105218 0)
(0.2081 -0.0801813 0)
(0.211162 -0.0603031 0)
(0.213372 -0.0448074 0)
(0.214931 -0.032917 0)
(0.215997 -0.02393 0)
(0.216722 -0.0172274 0)
(0.2172 -0.0122899 0)
(0.217512 -0.00869184 0)
(0.217716 -0.00609727 0)
(0.217847 -0.00424476 0)
(0.217931 -0.00293384 0)
(0.217984 -0.00201393 0)
(0.218017 -0.0013735 0)
(0.218037 -0.000930954 0)
(0.21805 -0.000627272 0)
(0.218058 -0.000420253 0)
(0.218063 -0.00028004 0)
(0.218065 -0.000185627 0)
(0.218067 -0.000122407 0)
(0.218068 -8.03072e-05 0)
(0.218069 -5.24187e-05 0)
(0.218069 -3.4033e-05 0)
(0.218069 -2.19672e-05 0)
(0.218069 -1.40875e-05 0)
(0.218069 -8.96301e-06 0)
(0.218069 -5.64477e-06 0)
(0.218069 -3.50617e-06 0)
(0.218069 -2.13417e-06 0)
(0.218069 -1.25899e-06 0)
(0.218069 -7.07241e-07 0)
(0.218069 -3.59633e-07 0)
(0.218069 -1.4164e-07 0)
(0.218069 -9.19712e-09 0)
(0.218069 7.01728e-08 0)
(0.218069 1.1609e-07 0)
(0.218069 1.41336e-07 0)
(0.218069 1.54475e-07 0)
(0.218069 1.61029e-07 0)
(0.218069 1.48326e-07 0)
(0.218069 1.33727e-07 0)
(0.218069 1.33523e-07 0)
(0.218069 1.30551e-07 0)
(0.218069 1.29289e-07 0)
(0.218069 9.49715e-08 0)
(0.218069 6.05318e-08 0)
(0.218069 6.01906e-08 0)
(0.218069 5.83078e-08 0)
(0.218069 5.71828e-08 0)
(0.218069 6.08986e-08 0)
(0.218069 -3.44367e-10 0)
(0.218069 -6.15165e-08 0)
(0.218069 -5.69688e-08 0)
(0.218069 -5.89248e-08 0)
(0.218069 -6.26174e-08 0)
(0.218069 -6.34526e-08 0)
(0.218069 -5.68694e-08 0)
(0.218069 -3.77261e-08 0)
(0.218069 3.04998e-09 0)
(0.21807 7.69589e-08 0)
(0.21807 1.99062e-07 0)
(0.21807 3.93592e-07 0)
(0.21807 6.94578e-07 0)
(0.21807 1.14978e-06 0)
(0.21807 1.82582e-06 0)
(0.21807 2.81439e-06 0)
(0.21807 4.23975e-06 0)
(0.218071 6.26726e-06 0)
(0.218071 9.11248e-06 0)
(0.21807 1.30504e-05 0)
(0.21807 1.84205e-05 0)
(0.21807 2.56277e-05 0)
(0.218069 3.51342e-05 0)
(0.218068 4.74346e-05 0)
(0.218066 6.30101e-05 0)
(0.218063 8.22489e-05 0)
(0.21806 0.000105328 0)
(0.218057 0.00013214 0)
(0.218057 0.000162604 0)
(0.218054 0.000197521 0)
(0.218025 0.000236988 0)
(0.218035 0.000270998 0)
(0.218407 0.000287609 0)
(0.218707 0.000368432 0)
(0.2163 0.000675016 0)
(0.217157 0.00079594 0)
(0.235925 0.000300613 0)
(0.191816 0.00140554 0)
(0.238386 0.000971378 0)
(-0.0524183 -0.396794 0)
(0.857528 -0.418875 0)
(0.473777 -0.450565 0)
(0.174818 -0.447123 0)
(0.0887126 -0.410996 0)
(0.0239032 -0.363211 0)
(-0.0402399 -0.312798 0)
(-0.0827495 -0.262487 0)
(-0.108422 -0.214898 0)
(-0.125715 -0.17218 0)
(-0.138351 -0.135414 0)
(-0.147605 -0.104779 0)
(-0.154536 -0.0798723 0)
(-0.159664 -0.0600683 0)
(-0.163542 -0.0446184 0)
(-0.166441 -0.032763 0)
(-0.168611 -0.0238056 0)
(-0.170208 -0.0171281 0)
(-0.171388 -0.0122112 0)
(-0.172249 -0.00863125 0)
(-0.172865 -0.00605178 0)
(-0.173305 -0.00421101 0)
(-0.173615 -0.00290919 0)
(-0.173832 -0.0019961 0)
(-0.173983 -0.00136073 0)
(-0.174087 -0.000921974 0)
(-0.174158 -0.000621001 0)
(-0.174207 -0.000415906 0)
(-0.174239 -0.000277051 0)
(-0.174261 -0.000183588 0)
(-0.174276 -0.000121023 0)
(-0.174286 -7.93717e-05 0)
(-0.174292 -5.1787e-05 0)
(-0.174297 -3.36057e-05 0)
(-0.174299 -2.16773e-05 0)
(-0.174301 -1.3889e-05 0)
(-0.174303 -8.82521e-06 0)
(-0.174303 -5.54717e-06 0)
(-0.174304 -3.43507e-06 0)
(-0.174304 -2.08105e-06 0)
(-0.174304 -1.21815e-06 0)
(-0.174305 -6.73378e-07 0)
(-0.174305 -3.30678e-07 0)
(-0.174305 -1.16958e-07 0)
(-0.174305 1.26863e-08 0)
(-0.174305 8.9851e-08 0)
(-0.174305 1.33957e-07 0)
(-0.174305 1.57567e-07 0)
(-0.174305 1.68942e-07 0)
(-0.174305 1.72847e-07 0)
(-0.174305 1.61069e-07 0)
(-0.174305 1.47052e-07 0)
(-0.174305 1.42913e-07 0)
(-0.174305 1.37256e-07 0)
(-0.174305 1.31825e-07 0)
(-0.174305 1.01648e-07 0)
(-0.174305 7.10125e-08 0)
(-0.174305 6.51994e-08 0)
(-0.174305 5.95237e-08 0)
(-0.174305 5.43015e-08 0)
(-0.174305 5.05738e-08 0)
(-0.174305 -2.49414e-09 0)
(-0.174305 -5.63491e-08 0)
(-0.174305 -6.04801e-08 0)
(-0.174305 -6.63834e-08 0)
(-0.174305 -7.28405e-08 0)
(-0.174305 -7.61614e-08 0)
(-0.174305 -7.21278e-08 0)
(-0.174305 -5.5574e-08 0)
(-0.174304 -1.77858e-08 0)
(-0.174304 5.25882e-08 0)
(-0.174304 1.70808e-07 0)
(-0.174304 3.60779e-07 0)
(-0.174304 6.56258e-07 0)
(-0.174304 1.1047e-06 0)
(-0.174303 1.77232e-06 0)
(-0.174303 2.75034e-06 0)
(-0.174302 4.16246e-06 0)
(-0.174302 6.17343e-06 0)
(-0.174301 8.99826e-06 0)
(-0.1743 1.29112e-05 0)
(-0.174298 1.82513e-05 0)
(-0.174296 2.54225e-05 0)
(-0.174293 3.48854e-05 0)
(-0.17429 4.71298e-05 0)
(-0.174285 6.26245e-05 0)
(-0.174279 8.17292e-05 0)
(-0.174271 0.000104562 0)
(-0.174259 0.000130901 0)
(-0.174242 0.000160448 0)
(-0.174224 0.000193531 0)
(-0.174229 0.000229324 0)
(-0.174189 0.000257419 0)
(-0.17377 0.000267341 0)
(-0.173437 0.000331344 0)
(-0.175905 0.000575306 0)
(-0.174963 0.000651035 0)
(-0.15595 0.000244089 0)
(-0.200688 0.000925175 0)
(-0.1549 0.00055163 0)
(-0.0459259 -0.33116 0)
(0.874935 -0.361209 0)
(0.472451 -0.39857 0)
(0.141701 -0.404161 0)
(0.0200345 -0.379004 0)
(-0.0824697 -0.34023 0)