/*--------------------------------*- C++ -*----------------------------------*\
| =========                 |                                                 |
| \\      /  F ield         | foam-extend: Open Source CFD                    |
|  \\    /   O peration     | Version:     5.0                                |
|   \\  /    A nd           | Web:         http://www.foam-extend.org         |
|    \\/     M anipulation  |                                                 |
\*---------------------------------------------------------------------------*/
FoamFile
{
    version     2.0;
    format      ascii;
    class       volVectorField;
    location    "0.065";
    object      bodyForce;
}
// * * * * * * * * * * * * * * * * * * * * * * * * * * * * * * * * * * * * * //

dimensions      [0 1 -2 0 0 0 0];

internalField   nonuniform List<vector> 
4000
(
(2775.63 -0 0)
(3587.78 -0 0)
(713.967 -0 0)
(-1243.77 0 0)
(-3807.19 0 0)
(-7094.92 0 0)
(-7174.28 0 0)
(-3759.35 0 0)
(-3581.46 0 0)
(-10770.1 0 0)
(-9687.62 0 0)
(-8186.79 0 0)
(-11131.5 0 0)
(-12699.7 0 0)
(-13452.6 0 0)
(-14137.3 0 0)
(-14178.6 0 0)
(-17569.9 0 0)
(-17991.8 0 0)
(-19219.2 0 0)
(-23767.6 0 0)
(-31608 0 0)
(-34325.7 0 0)
(-36065.8 0 0)
(-37210.8 0 0)
(-39090.9 0 0)
(-43694.8 0 0)
(-47373.2 0 0)
(-54112.3 0 0)
(-52764.5 0 0)
(-49442.3 0 0)
(-48031.8 0 0)
(-54956.7 0 0)
(-55857.7 0 0)
(-58641.9 0 0)
(-68614.5 0 0)
(-74178.4 0 0)
(-77625.8 0 0)
(-86035 0 0)
(-87177 0 0)
(-85272.3 0 0)
(-86989 0 0)
(-91613.2 0 0)
(-100759 0 0)
(-98798.5 0 0)
(-107074 0 0)
(-94800.3 0 0)
(-91686.2 0 0)
(-94221.3 0 0)
(-80178.1 0 0)
(-64941.2 0 0)
(-66845.7 0 0)
(-53693.4 0 0)
(-58373 0 0)
(-44241.8 0 0)
(-46444.6 0 0)
(-38951.8 0 0)
(-41779.4 0 0)
(-46476.5 0 0)
(-43311.9 0 0)
(-45363.5 0 0)
(-39278.8 0 0)
(-34532.5 0 0)
(-31991.1 0 0)
(-33253.8 0 0)
(-26750.5 0 0)
(-28694.2 0 0)
(-22922.8 0 0)
(-21186.9 0 0)
(-17162.9 0 0)
(-13005.1 0 0)
(-11810 0 0)
(-10371.8 0 0)
(-6822.45 0 0)
(-9755.39 0 0)
(-12598.5 0 0)
(-10792.6 0 0)
(-10075 0 0)
(-7869.4 0 0)
(-17488.3 0 0)
(-11620.8 0 0)
(-16808.9 0 0)
(-12324.3 0 0)
(-9571.55 0 0)
(-16056.8 0 0)
(-7900.1 0 0)
(-3576.27 0 0)
(-12289.9 0 0)
(-3407.05 0 0)
(-9322.34 0 0)
(-1446.3 0 0)
(-8970.4 0 0)
(1588.21 -0 0)
(-4258.85 0 0)
(-9087.14 0 0)
(321.442 -0 0)
(1418.32 -0 0)
(-3270.06 0 0)
(-16180.4 0 0)
(-40926.8 0 0)
(5638.38 -0 0)
(7053.07 -0 0)
(2576.93 -0 0)
(1871.16 -0 0)
(-2500.75 0 0)
(-14618.9 0 0)
(-20921.1 0 0)
(-8296.92 0 0)
(-4869.81 0 0)
(-18175.8 0 0)
(-15060.8 0 0)
(-13623.6 0 0)
(-25536 0 0)
(-20953.6 0 0)
(-21488 0 0)
(-22200.8 0 0)
(-21991.9 0 0)
(-34252.5 0 0)
(-29654.6 0 0)
(-28662.3 0 0)
(-41773.3 0 0)
(-41463.3 0 0)
(-46179.6 0 0)
(-55466.8 0 0)
(-70169.3 0 0)
(-77111.5 0 0)
(-79968.1 0 0)
(-83041.2 0 0)
(-94428.5 0 0)
(-94682.4 0 0)
(-84462.2 0 0)
(-89623.2 0 0)
(-97981.4 0 0)
(-99805.1 0 0)
(-105521 0 0)
(-127892 0 0)
(-139938 0 0)
(-148950 0 0)
(-156617 0 0)
(-165310 0 0)
(-165735 0 0)
(-167009 0 0)
(-171947 0 0)
(-165965 0 0)
(-177087 0 0)
(-176447 0 0)
(-149601 0 0)
(-158253 0 0)
(-137046 0 0)
(-141115 0 0)
(-119639 0 0)
(-123965 0 0)
(-101448 0 0)
(-107130 0 0)
(-87155.2 0 0)
(-90828.2 0 0)
(-74958.7 0 0)
(-85319.6 0 0)
(-75231.2 0 0)
(-88394 0 0)
(-75210.8 0 0)
(-84165.7 0 0)
(-68245.3 0 0)
(-62541 0 0)
(-69604.6 0 0)
(-51895.2 0 0)
(-57885 0 0)
(-45799.2 0 0)
(-39761.2 0 0)
(-37534.4 0 0)
(-24560.2 0 0)
(-25080.7 0 0)
(-22848.5 0 0)
(-15040 0 0)
(-19401 0 0)
(-18550.4 0 0)
(-18412.3 0 0)
(-27726.9 0 0)
(-18566.9 0 0)
(-31172.8 0 0)
(-20147.2 0 0)
(-26141.7 0 0)
(-30010.1 0 0)
(-18880.2 0 0)
(-26987.2 0 0)
(-17760 0 0)
(-8041.83 0 0)
(-22960.9 0 0)
(-13669.8 0 0)
(-9710.37 0 0)
(-2289.57 0 0)
(-15490.4 0 0)
(-4502.31 0 0)
(-18155.1 0 0)
(-25258.7 0 0)
(-9143.8 0 0)
(-22426.4 0 0)
(-22263.8 0 0)
(-46969.3 0 0)
(-72026.6 0 0)
(4217.46 -0 0)
(5577.81 -0 0)
(3702.05 -0 0)
(5487.47 -0 0)
(-4556.03 0 0)
(-1161.31 0 0)
(-14180.1 0 0)
(-4541.01 0 0)
(-1016.84 0 0)
(-2504.44 0 0)
(-1861.22 0 0)
(-15217.1 0 0)
(-20628.2 0 0)
(-12121.8 0 0)
(-13236.6 0 0)
(-15432.4 0 0)
(-6628.27 0 0)
(-13970.9 0 0)
(-26964.8 0 0)
(-20119.5 0 0)
(-16149.1 0 0)
(-19959.6 0 0)
(-26235.9 0 0)
(-33541 0 0)
(-56363 0 0)
(-68246.4 0 0)
(-72993.6 0 0)
(-82302.9 0 0)
(-89138.5 0 0)
(-85731.9 0 0)
(-78740.8 0 0)
(-89742.6 0 0)
(-87726.6 0 0)
(-99123.9 0 0)
(-100418 0 0)
(-122329 0 0)
(-136239 0 0)
(-156722 0 0)
(-174264 0 0)
(-175034 0 0)
(-177421 0 0)
(-166945 0 0)
(-176472 0 0)
(-176436 0 0)
(-183371 0 0)
(-164536 0 0)
(-152759 0 0)
(-162712 0 0)
(-154754 0 0)
(-140474 0 0)
(-146481 0 0)
(-147887 0 0)
(-122176 0 0)
(-107796 0 0)
(-113215 0 0)
(-97098.5 0 0)
(-84356.1 0 0)
(-98262.9 0 0)
(-86843.2 0 0)
(-99666.8 0 0)
(-86751.1 0 0)
(-96398.7 0 0)
(-81337.5 0 0)
(-88690.5 0 0)
(-74746.3 0 0)
(-56290.5 0 0)
(-65069.9 0 0)
(-51767.7 0 0)
(-47948.9 0 0)
(-35119.1 0 0)
(-31877 0 0)
(-18811.3 0 0)
(-14339.9 0 0)
(-25884.5 0 0)
(-36635.4 0 0)
(-25832 0 0)
(-38846 0 0)
(-25685.3 0 0)
(-34098.3 0 0)
(-24271.1 0 0)
(-18542.4 0 0)
(-30356.2 0 0)
(-17141.2 0 0)
(-29523.8 0 0)
(-19478.5 0 0)
(-32354.4 0 0)
(-19766.1 0 0)
(-25911.9 0 0)
(-35628 0 0)
(-40112.4 0 0)
(-22693.1 0 0)
(-12070.4 0 0)
(-27432.3 0 0)
(-31380 0 0)
(-21827.5 0 0)
(-16731.4 0 0)
(-27619.9 0 0)
(-47384.2 0 0)
(-51580.6 0 0)
(-64407.7 0 0)
(-1884.21 0 0)
(-3017.2 0 0)
(-597.188 0 0)
(4984.53 -0 0)
(4882.16 -0 0)
(-4055.63 0 0)
(426.681 -0 0)
(-10401.1 0 0)
(-2816.77 0 0)
(1669.83 -0 0)
(3988.41 -0 0)
(-12201.4 0 0)
(-3468.58 0 0)
(-4012.6 0 0)
(-18197.4 0 0)
(-16542.3 0 0)
(-7654.94 0 0)
(-5725.15 0 0)
(-21886.2 0 0)
(-28792.8 0 0)
(-17927.1 0 0)
(-14103.5 0 0)
(-18157.8 0 0)
(-23086.3 0 0)
(-45848.3 0 0)
(-48775.4 0 0)
(-57658.4 0 0)
(-67340.9 0 0)
(-72510.1 0 0)
(-76972.9 0 0)
(-76698.3 0 0)
(-85232.5 0 0)
(-89189.7 0 0)
(-97394.2 0 0)
(-101648 0 0)
(-120182 0 0)
(-136947 0 0)
(-147273 0 0)
(-164069 0 0)
(-174492 0 0)
(-191611 0 0)
(-191603 0 0)
(-191180 0 0)
(-178592 0 0)
(-184459 0 0)
(-170072 0 0)
(-180112 0 0)
(-161198 0 0)
(-168875 0 0)
(-170142 0 0)
(-168309 0 0)
(-166151 0 0)
(-137877 0 0)
(-137059 0 0)
(-136155 0 0)
(-109827 0 0)
(-112882 0 0)
(-115627 0 0)
(-99895.5 0 0)
(-110450 0 0)
(-115360 0 0)
(-95366.2 0 0)
(-101131 0 0)
(-104483 0 0)
(-81914.3 0 0)
(-62845.4 0 0)
(-69005 0 0)
(-56387.7 0 0)
(-44693.3 0 0)
(-46734 0 0)
(-34112.4 0 0)
(-22785.9 0 0)
(-28875.8 0 0)
(-26008.6 0 0)
(-23048 0 0)
(-19330.1 0 0)
(-37667.9 0 0)
(-32044.7 0 0)
(-27030.1 0 0)
(-20941.5 0 0)
(-35030.1 0 0)
(-22054.8 0 0)
(-14485.2 0 0)
(-17638.7 0 0)
(-31631 0 0)
(-23905.1 0 0)
(-37426.9 0 0)
(-27925.9 0 0)
(-28819.6 0 0)
(-23517.3 0 0)
(-36324.5 0 0)
(-23990.9 0 0)
(-36296.6 0 0)
(-25668.4 0 0)
(-33386.2 0 0)
(-45463.8 0 0)
(-53192.2 0 0)
(-46485.5 0 0)
(-49200.8 0 0)
(-83625.7 0 0)
(-4206.59 0 0)
(-2890.06 0 0)
(-8939.27 0 0)
(-433.241 0 0)
(3121.16 -0 0)
(6943.41 -0 0)
(-3968.07 0 0)
(-13074.7 0 0)
(-18172.9 0 0)
(-5217.13 0 0)
(889.722 -0 0)
(-10073.4 0 0)
(-1977.51 0 0)
(-13875.9 0 0)
(-15517.3 0 0)
(-13716.9 0 0)
(-24774.7 0 0)
(-12913.3 0 0)
(-24526.7 0 0)
(-16886.2 0 0)
(-30856 0 0)
(-20775.8 0 0)
(-20479 0 0)
(-28787.1 0 0)
(-46806.4 0 0)
(-44038.2 0 0)
(-53699.5 0 0)
(-56783.6 0 0)
(-53120.4 0 0)
(-50389.6 0 0)
(-67488.5 0 0)
(-74005.3 0 0)
(-85609 0 0)
(-92102.2 0 0)
(-97661.7 0 0)
(-114862 0 0)
(-123987 0 0)
(-144504 0 0)
(-160496 0 0)
(-166491 0 0)
(-181312 0 0)
(-196157 0 0)
(-202667 0 0)
(-199240 0 0)
(-184010 0 0)
(-182480 0 0)
(-190936 0 0)
(-176697 0 0)
(-161876 0 0)
(-174918 0 0)
(-171820 0 0)
(-152537 0 0)
(-155583 0 0)
(-135306 0 0)
(-140630 0 0)
(-133918 0 0)
(-123431 0 0)
(-108625 0 0)
(-116146 0 0)
(-104801 0 0)
(-113826 0 0)
(-111396 0 0)
(-113045 0 0)
(-97042 0 0)
(-78221 0 0)
(-78661.7 0 0)
(-62362.4 0 0)
(-68577.8 0 0)
(-50880.5 0 0)
(-51886.4 0 0)
(-52355.7 0 0)
(-35683.1 0 0)
(-29044.3 0 0)
(-40339.8 0 0)
(-32268.2 0 0)
(-23996.7 0 0)
(-33172.8 0 0)
(-45102.7 0 0)
(-33780.4 0 0)
(-42204.7 0 0)
(-34727 0 0)
(-23833.5 0 0)
(-34915 0 0)
(-41328.4 0 0)
(-30437.5 0 0)
(-46036.8 0 0)
(-33735.1 0 0)
(-45737.7 0 0)
(-32727.6 0 0)
(-45333.8 0 0)
(-32233 0 0)
(-45004.1 0 0)
(-31167.8 0 0)
(-41364.3 0 0)
(-30003 0 0)
(-45575.4 0 0)
(-41142.7 0 0)
(-41551 0 0)
(-50962.2 0 0)
(-88983.6 0 0)
(-4486 0 0)
(389.542 -0 0)
(-4852.22 0 0)
(-5994.13 0 0)
(-1822.85 0 0)
(4814.13 -0 0)
(8771.39 -0 0)
(-4360.36 0 0)
(-15983.6 0 0)
(-6265.53 0 0)
(-870.371 0 0)
(-4384.23 0 0)
(-13995.9 0 0)
(-8257.23 0 0)
(-24319.5 0 0)
(-31407.4 0 0)
(-38605.1 0 0)
(-21336.2 0 0)
(-20806.6 0 0)
(-16331.2 0 0)
(-34312 0 0)
(-26285.4 0 0)
(-32325.6 0 0)
(-42104.8 0 0)
(-43804.1 0 0)
(-45194.4 0 0)
(-50862.9 0 0)
(-39089.5 0 0)
(-31121.1 0 0)
(-24173.7 0 0)
(-39539.6 0 0)
(-43101.8 0 0)
(-63480 0 0)
(-86530.8 0 0)
(-93891 0 0)
(-97307.9 0 0)
(-120675 0 0)
(-134059 0 0)
(-145767 0 0)
(-150354 0 0)
(-172426 0 0)
(-190559 0 0)
(-193892 0 0)
(-196990 0 0)
(-201098 0 0)
(-202614 0 0)
(-187280 0 0)
(-202362 0 0)
(-178944 0 0)
(-188817 0 0)
(-164832 0 0)
(-162787 0 0)
(-164738 0 0)
(-140220 0 0)
(-143764 0 0)
(-143146 0 0)
(-118158 0 0)
(-125155 0 0)
(-106611 0 0)
(-117672 0 0)
(-102371 0 0)
(-108402 0 0)
(-97489.7 0 0)
(-85664.5 0 0)
(-72956 0 0)
(-82351.9 0 0)
(-67202.5 0 0)
(-56826.5 0 0)
(-61057.2 0 0)
(-44125.3 0 0)
(-48600.7 0 0)
(-45426.4 0 0)
(-45757.1 0 0)
(-35243.2 0 0)
(-42554.8 0 0)
(-32971.9 0 0)
(-44055.1 0 0)
(-48960.9 0 0)
(-58385 0 0)
(-42431.1 0 0)
(-30681.8 0 0)
(-42816.6 0 0)
(-35260.1 0 0)
(-29315.7 0 0)
(-44641.9 0 0)
(-54781.2 0 0)
(-44960.2 0 0)
(-35103.8 0 0)
(-49078.5 0 0)
(-58539.1 0 0)
(-41391.7 0 0)
(-53969.3 0 0)
(-39393.1 0 0)
(-30045.2 0 0)
(-43862.5 0 0)
(-35563.9 0 0)
(-46932.6 0 0)
(-43789.1 0 0)
(-68689.9 0 0)
(-88107.1 0 0)
(-6480.25 0 0)
(3513.86 -0 0)
(3011 -0 0)
(2616.73 -0 0)
(-6746.58 0 0)
(-1927.46 0 0)
(4384.47 -0 0)
(6454.07 -0 0)
(-10138.4 0 0)
(-6749.4 0 0)
(-12387.6 0 0)
(-4242.11 0 0)
(-18405.4 0 0)
(-13281.4 0 0)
(-27280.4 0 0)
(-37233.7 0 0)
(-42909.7 0 0)
(-28791.1 0 0)
(-21888.7 0 0)
(-23416.3 0 0)
(-37026.3 0 0)
(-33292.7 0 0)
(-44156.4 0 0)
(-49069.5 0 0)
(-48307.5 0 0)
(-46153.5 0 0)
(-28639.3 0 0)
(-18148.7 0 0)
(-2735.44 0 0)
(-16351.4 0 0)
(-39393.8 0 0)
(-41067.1 0 0)
(-42210.6 0 0)
(-61469.4 0 0)
(-75965.3 0 0)
(-94823.5 0 0)
(-95433.4 0 0)
(-123657 0 0)
(-129991 0 0)
(-132863 0 0)
(-154671 0 0)
(-172771 0 0)
(-185089 0 0)
(-186626 0 0)
(-186894 0 0)
(-198828 0 0)
(-201924 0 0)
(-214056 0 0)
(-189689 0 0)
(-194837 0 0)
(-170928 0 0)
(-169308 0 0)
(-151217 0 0)
(-151851 0 0)
(-133887 0 0)
(-139426 0 0)
(-118914 0 0)
(-124799 0 0)
(-104701 0 0)
(-116706 0 0)
(-98615.3 0 0)
(-90701.2 0 0)
(-99402.1 0 0)
(-82942.7 0 0)
(-85649.8 0 0)
(-91119.2 0 0)
(-69673.2 0 0)
(-57715.7 0 0)
(-48709 0 0)
(-52854.7 0 0)
(-38587.6 0 0)
(-28932 0 0)
(-35694 0 0)
(-39022.6 0 0)
(-33651.2 0 0)
(-46490.9 0 0)
(-42120.6 0 0)
(-54387.3 0 0)
(-65530.5 0 0)
(-50863.9 0 0)
(-35556.4 0 0)
(-50400.2 0 0)
(-49159.8 0 0)
(-39967.3 0 0)
(-41600.9 0 0)
(-55121.4 0 0)
(-65437.7 0 0)
(-45734.7 0 0)
(-57843.7 0 0)
(-47627.5 0 0)
(-55705.6 0 0)
(-58775.9 0 0)
(-40664.5 0 0)
(-50192.6 0 0)
(-41204 0 0)
(-30357.1 0 0)
(-46771.9 0 0)
(-45639 0 0)
(-74914 0 0)
(-85728.6 0 0)
(-8452.93 0 0)
(2108.85 -0 0)
(5834.81 -0 0)
(-1516.14 0 0)
(935.662 -0 0)
(-10031.4 0 0)
(-11200.1 0 0)
(-10658 0 0)
(-4778.37 0 0)
(-15387.1 0 0)
(-9172.87 0 0)
(-18109.5 0 0)
(-25216.7 0 0)
(-30213.2 0 0)
(-24140.8 0 0)
(-34491.1 0 0)
(-39135 0 0)
(-43569.6 0 0)
(-30627.2 0 0)
(-29735.1 0 0)
(-35531 0 0)
(-42969.3 0 0)
(-46686 0 0)
(-50950.1 0 0)
(-31531.2 0 0)
(-23689.3 0 0)
(-16754.8 0 0)
(-6989.52 0 0)
(1552.76 -0 0)
(-25921.8 0 0)
(-27206.8 0 0)
(-52439.7 0 0)
(-56946.1 0 0)
(-57492.1 0 0)
(-83443.1 0 0)
(-79077.6 0 0)
(-88852.1 0 0)
(-108523 0 0)
(-105686 0 0)
(-122395 0 0)
(-143715 0 0)
(-150537 0 0)
(-164604 0 0)
(-171225 0 0)
(-175823 0 0)
(-188374 0 0)
(-195453 0 0)
(-212958 0 0)
(-198064 0 0)
(-194372 0 0)
(-183010 0 0)
(-159894 0 0)
(-156509 0 0)
(-144811 0 0)
(-126885 0 0)
(-131809 0 0)
(-129754 0 0)
(-114637 0 0)
(-99834.1 0 0)
(-111901 0 0)
(-94903.3 0 0)
(-100831 0 0)
(-87868 0 0)
(-92889.2 0 0)
(-79647.8 0 0)
(-88297.9 0 0)
(-71563.2 0 0)
(-64933.8 0 0)
(-48967.2 0 0)
(-56276.2 0 0)
(-41975.9 0 0)
(-30102.3 0 0)
(-23555.6 0 0)
(-27570.1 0 0)
(-41664.3 0 0)
(-46994.8 0 0)
(-57766.9 0 0)
(-51699.7 0 0)
(-63015.3 0 0)
(-65274.6 0 0)
(-49419 0 0)
(-61241.4 0 0)
(-55591.6 0 0)
(-51262.8 0 0)
(-65086.5 0 0)
(-50236.4 0 0)
(-64576.5 0 0)
(-46993.3 0 0)
(-56828.6 0 0)
(-58962.5 0 0)
(-45897.5 0 0)
(-36528.7 0 0)
(-48372 0 0)
(-42436 0 0)
(-34051.4 0 0)
(-35374.1 0 0)
(-43279.8 0 0)
(-47326.1 0 0)
(-67712.2 0 0)
(-38907.5 0 0)
(-9819.93 0 0)
(484.97 -0 0)
(5285.59 -0 0)
(585.865 -0 0)
(-2549.99 0 0)
(-2488.38 0 0)
(-14605.2 0 0)
(-20898.3 0 0)
(-19367.2 0 0)
(-12325.8 0 0)
(-17959.8 0 0)
(-23650.6 0 0)
(-17808 0 0)
(-28068.6 0 0)
(-34943.7 0 0)
(-25994.2 0 0)
(-38208.3 0 0)
(-44103 0 0)
(-36819.5 0 0)
(-34938.9 0 0)
(-38124.3 0 0)
(-45638.6 0 0)
(-32466.5 0 0)
(-34812.2 0 0)
(-8370.84 0 0)
(-11987.3 0 0)
(6119.32 -0 0)
(-1000.38 0 0)
(-22644.1 0 0)
(-27689.6 0 0)
(-28312.5 0 0)
(-31009.2 0 0)
(-52024.6 0 0)
(-75770.6 0 0)
(-74160.4 0 0)
(-101017 0 0)
(-98968.9 0 0)
(-101303 0 0)
(-99677.7 0 0)
(-117378 0 0)
(-119155 0 0)
(-141315 0 0)
(-148393 0 0)
(-150675 0 0)
(-163769 0 0)
(-175190 0 0)
(-184432 0 0)
(-192629 0 0)
(-192741 0 0)
(-181804 0 0)
(-189810 0 0)
(-155862 0 0)
(-156966 0 0)
(-139498 0 0)
(-121641 0 0)
(-127015 0 0)
(-116132 0 0)
(-118029 0 0)
(-105386 0 0)
(-104254 0 0)
(-91617.8 0 0)
(-99836.2 0 0)
(-86217 0 0)
(-93443 0 0)
(-78097 0 0)
(-81841.2 0 0)
(-83262.5 0 0)
(-65665.2 0 0)
(-51212.8 0 0)
(-58621.7 0 0)
(-51291.1 0 0)
(-37798.3 0 0)
(-29725.5 0 0)
(-43149.8 0 0)
(-47549.7 0 0)
(-59730.3 0 0)
(-57545 0 0)
(-61183.5 0 0)
(-57208.1 0 0)
(-64348.2 0 0)
(-68875.6 0 0)
(-59705.4 0 0)
(-74966 0 0)
(-66423.5 0 0)
(-65507.4 0 0)
(-57581.6 0 0)
(-64271.4 0 0)
(-48369.5 0 0)
(-38979.1 0 0)
(-34616.2 0 0)
(-37460.7 0 0)
(-48357.5 0 0)
(-41466.9 0 0)
(-37293.9 0 0)
(-34973.8 0 0)
(-39452.1 0 0)
(-40710.7 0 0)
(-48128.4 0 0)
(-47635.8 0 0)
(-2436.3 0 0)
(-9860.48 0 0)
(-471.683 0 0)
(4660.83 -0 0)
(5042.4 -0 0)
(2416.55 -0 0)
(-7379.3 0 0)
(-6099.63 0 0)
(-17782.5 0 0)
(-10785.8 0 0)
(-17089.5 0 0)
(-11259.5 0 0)
(-20971.3 0 0)
(-24614.4 0 0)
(-16446.3 0 0)
(-31297.5 0 0)
(-24650.4 0 0)
(-28145.2 0 0)
(-39162.2 0 0)
(-39630.3 0 0)
(-38621.5 0 0)
(-37649.5 0 0)
(-31716.7 0 0)
(-23810.2 0 0)
(-8478.01 0 0)
(-8241.85 0 0)
(6994.18 -0 0)
(-1507.21 0 0)
(2233.94 -0 0)
(-20453.6 0 0)
(-7012.87 0 0)
(-26775.2 0 0)
(-56447.8 0 0)
(-66428.4 0 0)
(-64400.4 0 0)
(-62829.4 0 0)
(-85686.4 0 0)
(-77083.3 0 0)
(-95613.4 0 0)
(-99859.5 0 0)
(-96829.1 0 0)
(-104121 0 0)
(-124049 0 0)
(-130927 0 0)
(-143984 0 0)
(-155198 0 0)
(-159576 0 0)
(-168432 0 0)
(-176790 0 0)
(-174594 0 0)
(-165538 0 0)
(-172997 0 0)
(-156575 0 0)
(-155897 0 0)
(-132231 0 0)
(-127393 0 0)
(-115490 0 0)
(-123747 0 0)
(-114163 0 0)
(-118457 0 0)
(-107355 0 0)
(-103705 0 0)
(-95402.2 0 0)
(-94393.2 0 0)
(-83352.6 0 0)
(-86205.7 0 0)
(-76124.8 0 0)
(-80299.8 0 0)
(-64652.3 0 0)
(-63078 0 0)
(-53244.3 0 0)
(-55024.4 0 0)
(-53856.5 0 0)
(-44060.8 0 0)
(-57411.7 0 0)
(-57440.8 0 0)
(-66142 0 0)
(-59141.9 0 0)
(-62452.8 0 0)
(-61001.6 0 0)
(-63312.3 0 0)
(-71001.3 0 0)
(-65691.5 0 0)
(-81040.7 0 0)
(-74894.2 0 0)
(-76444.4 0 0)
(-63659.7 0 0)
(-54739.8 0 0)
(-54626.7 0 0)
(-39686.4 0 0)
(-30875.9 0 0)
(-40116.9 0 0)
(-49902.8 0 0)
(-39202.9 0 0)
(-42572.7 0 0)
(-40658.8 0 0)
(-42114.8 0 0)
(-39224.5 0 0)
(-40182.6 0 0)
(-19967.7 0 0)
(28160 -0 0)
(-10134 0 0)
(1878.88 -0 0)
(3771.46 -0 0)
(3807.45 -0 0)
(281.151 -0 0)
(-4068.93 0 0)
(-13086.8 0 0)
(-8259.99 0 0)
(-14011.6 0 0)
(-8507.07 0 0)
(-14673.8 0 0)
(-7589.49 0 0)
(-17813 0 0)
(-13117.3 0 0)
(-17130.7 0 0)
(-31757.3 0 0)
(-33835.7 0 0)
(-34964 0 0)
(-38287.8 0 0)
(-28726.2 0 0)
(-24509.2 0 0)
(-10760.1 0 0)
(-11689.4 0 0)
(10390.4 -0 0)
(7595.93 -0 0)
(1115.58 -0 0)
(11416 -0 0)
(-1604.06 0 0)
(5429.34 -0 0)
(-5983.76 0 0)
(-36102.1 0 0)
(-36869.7 0 0)
(-60154.6 0 0)
(-51976.4 0 0)
(-72748 0 0)
(-66583.6 0 0)
(-79760 0 0)
(-73054.4 0 0)
(-89099.9 0 0)
(-102305 0 0)
(-99322.3 0 0)
(-103500 0 0)
(-118394 0 0)
(-143293 0 0)
(-141356 0 0)
(-152021 0 0)
(-153427 0 0)
(-161192 0 0)
(-156687 0 0)
(-153057 0 0)
(-160127 0 0)
(-142223 0 0)
(-138358 0 0)
(-121439 0 0)
(-126401 0 0)
(-113924 0 0)
(-127752 0 0)
(-127904 0 0)
(-119426 0 0)
(-116920 0 0)
(-103813 0 0)
(-103588 0 0)
(-91367.6 0 0)
(-89700.4 0 0)
(-81421.6 0 0)
(-84295 0 0)
(-72579.9 0 0)
(-61784.6 0 0)
(-57299.8 0 0)
(-61580.4 0 0)
(-53262.6 0 0)
(-59764.9 0 0)
(-69086.8 0 0)
(-77004.9 0 0)
(-71873.3 0 0)
(-68450.6 0 0)
(-64087.5 0 0)
(-58986.8 0 0)
(-66122.7 0 0)
(-65568.3 0 0)
(-75435.9 0 0)
(-70295.2 0 0)
(-81287.3 0 0)
(-78958.7 0 0)
(-76391.4 0 0)
(-70917.4 0 0)
(-58982.3 0 0)
(-55168.6 0 0)
(-49197.6 0 0)
(-42996.6 0 0)
(-44213.8 0 0)
(-45804.3 0 0)
(-41869.3 0 0)
(-45535.8 0 0)
(-41687.6 0 0)
(-38687.8 0 0)
(-36891.2 0 0)
(-26157.3 0 0)
(-6845.85 0 0)
(36634.1 -0 0)
(-9603.93 0 0)
(3224.12 -0 0)
(4833.79 -0 0)
(1949.84 -0 0)
(-2991.45 0 0)
(-7473.39 0 0)
(-11867.4 0 0)
(-13256.5 0 0)
(-7235.39 0 0)
(-4402.6 0 0)
(-4019.67 0 0)
(-3908.22 0 0)
(-5607.48 0 0)
(-18322.8 0 0)
(-19519.3 0 0)
(-30287.9 0 0)
(-29811 0 0)
(-30437.2 0 0)
(-25139.6 0 0)
(-28445.5 0 0)
(-20937.7 0 0)
(-7.85535 0 0)
(8421.97 -0 0)
(2644.88 -0 0)
(12358.3 -0 0)
(2977.23 -0 0)
(7282.66 -0 0)
(10211.2 -0 0)
(-7442.04 0 0)
(-21783 0 0)
(-24200.7 0 0)
(-47129.3 0 0)
(-46880 0 0)
(-61932.4 0 0)
(-84917.7 0 0)
(-84340.7 0 0)
(-72056.5 0 0)
(-82890.2 0 0)
(-97655 0 0)
(-93124.2 0 0)
(-108886 0 0)
(-104594 0 0)
(-110374 0 0)
(-125458 0 0)
(-133355 0 0)
(-138407 0 0)
(-134909 0 0)
(-142492 0 0)
(-136511 0 0)
(-133808 0 0)
(-142128 0 0)
(-132538 0 0)
(-127322 0 0)
(-114798 0 0)
(-115018 0 0)
(-116929 0 0)
(-124725 0 0)
(-124529 0 0)
(-119747 0 0)
(-113376 0 0)
(-105751 0 0)
(-102743 0 0)
(-91179.3 0 0)
(-87700.6 0 0)
(-78759.5 0 0)
(-79851.7 0 0)
(-70741.7 0 0)
(-62070.4 0 0)
(-60391.7 0 0)
(-59107 0 0)
(-59876.5 0 0)
(-71210.1 0 0)
(-80992.2 0 0)
(-83189.3 0 0)
(-73028.6 0 0)
(-64121 0 0)
(-55309.1 0 0)
(-64161.4 0 0)
(-59811 0 0)
(-70906.5 0 0)
(-74757 0 0)
(-69080 0 0)
(-81028.2 0 0)
(-79473.5 0 0)
(-71754 0 0)
(-69621.1 0 0)
(-60335 0 0)
(-66007.4 0 0)
(-58177.4 0 0)
(-46013.2 0 0)
(-42924.6 0 0)
(-47998.6 0 0)
(-41956.8 0 0)
(-45993.9 0 0)
(-40573.7 0 0)
(-38939.8 0 0)
(-28421.4 0 0)
(-8068.1 0 0)
(12237.6 -0 0)
(59037.4 -0 0)
(-8127.4 0 0)
(4752.91 -0 0)
(7261.08 -0 0)
(4051.81 -0 0)
(335.948 -0 0)
(-4825.12 0 0)
(-4791.22 0 0)
(-7723.03 0 0)
(-9835.53 0 0)
(-4146.44 0 0)
(-3156.21 0 0)
(-14129.5 0 0)
(-10600.1 0 0)
(-17894.2 0 0)
(-28900.8 0 0)
(-27592.2 0 0)
(-29380 0 0)
(-20755.6 0 0)
(-20786.3 0 0)
(-12172.7 0 0)
(-4007.12 0 0)
(-1072.98 0 0)
(4121.48 -0 0)
(11190.9 -0 0)
(16723.3 -0 0)
(3393.41 -0 0)
(11443.1 -0 0)
(-9896.99 0 0)
(-22740.5 0 0)
(-31764.6 0 0)
(-43112.1 0 0)
(-47343.8 0 0)
(-73034.2 0 0)
(-71511.3 0 0)
(-71231 0 0)
(-95403.6 0 0)
(-95948.8 0 0)
(-99673.5 0 0)
(-90600 0 0)
(-88089.8 0 0)
(-101865 0 0)
(-109410 0 0)
(-111333 0 0)
(-109030 0 0)
(-114926 0 0)
(-115452 0 0)
(-124839 0 0)
(-129778 0 0)
(-120046 0 0)
(-124275 0 0)
(-122650 0 0)
(-118695 0 0)
(-102256 0 0)
(-108030 0 0)
(-110125 0 0)
(-124252 0 0)
(-126630 0 0)
(-123733 0 0)
(-120802 0 0)
(-100071 0 0)
(-109800 0 0)
(-105505 0 0)
(-96446.9 0 0)
(-89337.5 0 0)
(-75802.4 0 0)
(-80345.6 0 0)
(-67735.7 0 0)
(-64095.2 0 0)
(-63093.1 0 0)
(-62891.6 0 0)
(-69586.5 0 0)
(-75621.8 0 0)
(-73856.9 0 0)
(-79150.8 0 0)
(-69363.6 0 0)
(-54105.4 0 0)
(-62283.3 0 0)
(-53248.9 0 0)
(-61960.8 0 0)
(-54312.6 0 0)
(-57843.2 0 0)
(-74466.2 0 0)
(-73490.6 0 0)
(-67055.6 0 0)
(-59663.6 0 0)
(-65833.3 0 0)
(-74836.4 0 0)
(-72114.7 0 0)
(-62420.9 0 0)
(-62100.5 0 0)
(-48156.9 0 0)
(-56565.8 0 0)
(-52947 0 0)
(-43574 0 0)
(-41924.4 0 0)
(-30883.4 0 0)
(-20679.2 0 0)
(3422.78 -0 0)
(19306.3 -0 0)
(58122.8 -0 0)
(-6794.18 0 0)
(6222.2 -0 0)
(8541.88 -0 0)
(5351.15 -0 0)
(2654.97 -0 0)
(-1913 0 0)
(-2068.59 0 0)
(-2470.78 0 0)
(-3629.23 0 0)
(-2975.57 0 0)
(-10686.8 0 0)
(-13425.7 0 0)
(-22408.1 0 0)
(-26279.3 0 0)
(-28070.1 0 0)
(-26488.9 0 0)
(-22695.2 0 0)
(-20028.2 0 0)
(-8524.02 0 0)
(-8573.84 0 0)
(9775.05 -0 0)
(15272.2 -0 0)
(16595.3 -0 0)
(14110.3 -0 0)
(25839.6 -0 0)
(16985.9 -0 0)
(4005.17 -0 0)
(-4542.32 0 0)
(-22126 0 0)
(-37454.1 0 0)
(-36798.8 0 0)
(-53346.1 0 0)
(-47600.3 0 0)
(-66761.8 0 0)
(-59183.9 0 0)
(-77530.7 0 0)
(-73287.4 0 0)
(-96738 0 0)
(-91171.4 0 0)
(-104683 0 0)
(-106753 0 0)
(-102668 0 0)
(-101795 0 0)
(-107891 0 0)
(-102788 0 0)
(-110015 0 0)
(-108254 0 0)
(-115167 0 0)
(-114948 0 0)
(-119362 0 0)
(-105681 0 0)
(-102591 0 0)
(-82549.8 0 0)
(-86487.2 0 0)
(-98222.2 0 0)
(-119477 0 0)
(-116342 0 0)
(-119163 0 0)
(-109494 0 0)
(-93349.1 0 0)
(-101852 0 0)
(-87088.8 0 0)
(-92677.7 0 0)
(-91201.5 0 0)
(-81293.6 0 0)
(-69588.7 0 0)
(-76289.1 0 0)
(-68426.3 0 0)
(-58672.7 0 0)
(-69515.6 0 0)
(-67061.8 0 0)
(-67707.9 0 0)
(-71014.8 0 0)
(-61824.9 0 0)
(-59154.4 0 0)
(-70198.3 0 0)
(-65048.1 0 0)
(-62406.2 0 0)
(-51458.3 0 0)
(-64595.4 0 0)
(-53087.1 0 0)
(-60773 0 0)
(-51540.8 0 0)
(-55734.7 0 0)
(-66243.8 0 0)
(-75651 0 0)
(-66817.2 0 0)
(-71713.4 0 0)
(-74883 0 0)
(-65543.5 0 0)
(-44736.5 0 0)
(-45606.4 0 0)
(-51052.2 0 0)
(-43552.3 0 0)
(-30721.9 0 0)
(-25510.9 0 0)
(-3551.79 0 0)
(21150.5 -0 0)
(26596.5 -0 0)
(57418.2 -0 0)
(-7453.47 0 0)
(7103.38 -0 0)
(8922.83 -0 0)
(7986.26 -0 0)
(6818.48 -0 0)
(2024.52 -0 0)
(1845.4 -0 0)
(868.028 -0 0)
(-1438.54 0 0)
(-3161.92 0 0)
(-9775.16 0 0)
(-15146.9 0 0)
(-23694.8 0 0)
(-29109.4 0 0)
(-28009.5 0 0)
(-21246.8 0 0)
(-16231.5 0 0)
(-20448.2 0 0)
(-9384.07 0 0)
(2860.27 -0 0)
(13896.5 -0 0)
(12293.2 -0 0)
(26570.6 -0 0)
(27262.3 -0 0)
(22878.7 -0 0)
(27438.6 -0 0)
(18346.4 -0 0)
(5906.96 -0 0)
(-14495.3 0 0)
(-26667 0 0)
(-19601.4 0 0)
(-37893.8 0 0)
(-28802 0 0)
(-42118.5 0 0)
(-62618.1 0 0)
(-55659.3 0 0)
(-69280.1 0 0)
(-94460.6 0 0)
(-93890.1 0 0)
(-85094.3 0 0)
(-95412.4 0 0)
(-91718.5 0 0)
(-99619.6 0 0)
(-105667 0 0)
(-97453.6 0 0)
(-98740.1 0 0)
(-102797 0 0)
(-99872.6 0 0)
(-114705 0 0)
(-106695 0 0)
(-102865 0 0)
(-99855.4 0 0)
(-101014 0 0)
(-93065.6 0 0)
(-85555.5 0 0)
(-98462.5 0 0)
(-113946 0 0)
(-100793 0 0)
(-105127 0 0)
(-106905 0 0)
(-103246 0 0)
(-89921 0 0)
(-74873.6 0 0)
(-93867.2 0 0)
(-87122.8 0 0)
(-70860.8 0 0)
(-84835 0 0)
(-78899.4 0 0)
(-70426.3 0 0)
(-68718.3 0 0)
(-76767.9 0 0)
(-75343.7 0 0)
(-64350.4 0 0)
(-65804.1 0 0)
(-51868.2 0 0)
(-64703.2 0 0)
(-52997.9 0 0)
(-40269.4 0 0)
(-49865.9 0 0)
(-68754 0 0)
(-66499 0 0)
(-49672.4 0 0)
(-64792 0 0)
(-62067.7 0 0)
(-74904.1 0 0)
(-72675 0 0)
(-61259.4 0 0)
(-81223.1 0 0)
(-74358.9 0 0)
(-57283 0 0)
(-60665.2 0 0)
(-45698.3 0 0)
(-29418.9 0 0)
(-28105 0 0)
(-29943.6 0 0)
(-22656 0 0)
(-748.926 0 0)
(24571 -0 0)
(33327.2 -0 0)
(44627.1 -0 0)
(-9153.41 0 0)
(7492.71 -0 0)
(9545.54 -0 0)
(12863.5 -0 0)
(6433.53 -0 0)
(6926.76 -0 0)
(8668.48 -0 0)
(2453.53 -0 0)
(716.556 -0 0)
(-4925.66 0 0)
(-10533.9 0 0)
(-18606.7 0 0)
(-23301.1 0 0)
(-25034.7 0 0)
(-19069.7 0 0)
(-19461.9 0 0)
(-10420.8 0 0)
(-10154.4 0 0)
(-10901.9 0 0)
(6242.13 -0 0)
(8503.38 -0 0)
(18146.6 -0 0)
(19140.9 -0 0)
(31110.1 -0 0)
(21278.4 -0 0)
(13803.1 -0 0)
(7820.91 -0 0)
(2641.69 -0 0)
(-19188.4 0 0)
(-14260.7 0 0)
(-32529.3 0 0)
(-33050.7 0 0)
(-55253.5 0 0)
(-50512.9 0 0)
(-52799.7 0 0)
(-74136.4 0 0)
(-66531 0 0)
(-82252 0 0)
(-72859.7 0 0)
(-87830.5 0 0)
(-85663.2 0 0)
(-95771.3 0 0)
(-92118.8 0 0)
(-93684 0 0)
(-85444.2 0 0)
(-97444.1 0 0)
(-94132 0 0)
(-80745.2 0 0)
(-98159.1 0 0)
(-98826.7 0 0)
(-81965.5 0 0)
(-90752.9 0 0)
(-108560 0 0)
(-100275 0 0)
(-92203.9 0 0)
(-82496.3 0 0)
(-84026.9 0 0)
(-95009.6 0 0)
(-82367.6 0 0)
(-83432.6 0 0)
(-95801.1 0 0)
(-87369.8 0 0)
(-74694.1 0 0)
(-95670 0 0)
(-90806.1 0 0)
(-74380.7 0 0)
(-88105.9 0 0)
(-82118.6 0 0)
(-66950.4 0 0)
(-60126.6 0 0)
(-66733.8 0 0)
(-80514.4 0 0)
(-74728.5 0 0)
(-64412.2 0 0)
(-52553.6 0 0)
(-59101.3 0 0)
(-46392.7 0 0)
(-44131.1 0 0)
(-60029.9 0 0)
(-49480.1 0 0)
(-59578.1 0 0)
(-46732 0 0)
(-62492.1 0 0)
(-54681.3 0 0)
(-54579.5 0 0)
(-52112 0 0)
(-54841.3 0 0)
(-71293.7 0 0)
(-62050.4 0 0)
(-75708.6 0 0)
(-66696.9 0 0)
(-47634 0 0)
(-34886.1 0 0)
(-24151 0 0)
(-5338.78 0 0)
(-5.83216 0 0)
(2744.15 -0 0)
(14755.8 -0 0)
(6127.84 -0 0)
(14822.3 -0 0)
(-7428.22 0 0)
(7883.83 -0 0)
(11145.4 -0 0)
(13304.1 -0 0)
(12093.4 -0 0)
(12829.6 -0 0)
(5667.73 -0 0)
(-2864.63 0 0)
(-1498.32 0 0)
(-3655.7 0 0)
(-644.376 0 0)
(-9546.77 0 0)
(-20020.8 0 0)
(-16916.7 0 0)
(-20085.2 0 0)
(-14770.7 0 0)
(-13941.2 0 0)
(-7450.41 0 0)
(-11736.2 0 0)
(1217.81 -0 0)
(9350.81 -0 0)
(9302.91 -0 0)
(18769.4 -0 0)
(33977.8 -0 0)
(30512.1 -0 0)
(10261 -0 0)
(9136.76 -0 0)
(-7284.26 0 0)
(-8927.14 0 0)
(-18276.4 0 0)
(-47210.9 0 0)
(-50051.2 0 0)
(-78980.2 0 0)
(-78800.8 0 0)
(-65968.1 0 0)
(-86178.6 0 0)
(-82517.3 0 0)
(-75455.7 0 0)
(-68201.7 0 0)
(-78360.2 0 0)
(-93904.2 0 0)
(-87752.2 0 0)
(-85341.4 0 0)
(-80779.4 0 0)
(-89448.2 0 0)
(-94418.5 0 0)
(-79413.2 0 0)
(-72502.7 0 0)
(-80573.8 0 0)
(-82564.6 0 0)
(-77614.3 0 0)
(-87850 0 0)
(-82778.3 0 0)
(-90985.2 0 0)
(-96715.7 0 0)
(-85948.4 0 0)
(-62988.1 0 0)
(-66719 0 0)
(-70771.8 0 0)
(-73230.4 0 0)
(-58300.1 0 0)
(-58970 0 0)
(-73743.6 0 0)
(-91739.5 0 0)
(-80134.8 0 0)
(-82013.6 0 0)
(-69695.9 0 0)
(-82134.8 0 0)
(-73002.7 0 0)
(-55349.5 0 0)
(-61250.5 0 0)
(-78205.7 0 0)
(-69157.4 0 0)
(-57291.9 0 0)
(-65503.9 0 0)
(-56162.5 0 0)
(-71316.4 0 0)
(-63340.9 0 0)
(-44904.1 0 0)
(-63846.5 0 0)
(-56046.2 0 0)
(-50735.2 0 0)
(-49041.6 0 0)
(-38167 0 0)
(-56025.2 0 0)
(-48783.9 0 0)
(-57989.5 0 0)
(-49213.6 0 0)
(-58624.7 0 0)
(-50630.5 0 0)
(-59764.4 0 0)
(-44511.9 0 0)
(-25822.8 0 0)
(-7590.96 0 0)
(-6594.25 0 0)
(7208.56 -0 0)
(8130.5 -0 0)
(726.796 -0 0)
(-32352.5 0 0)
(-18950.3 0 0)
(-4137.36 0 0)
(7210.62 -0 0)
(12774.7 -0 0)
(7724.93 -0 0)
(4798.68 -0 0)
(8293.96 -0 0)
(-1388.29 0 0)
(1798.41 -0 0)
(9253.92 -0 0)
(-8851.54 0 0)
(-6024.55 0 0)
(-3079.37 0 0)
(-3132.51 0 0)
(-7842.47 0 0)
(-12587.9 0 0)
(-19164.7 0 0)
(-6211.77 0 0)
(-10734.9 0 0)
(-3876.93 0 0)
(1524.07 -0 0)
(9071.49 -0 0)
(8438.04 -0 0)
(15965.6 -0 0)
(29396.5 -0 0)
(33070.7 -0 0)
(11624.6 -0 0)
(-1398.15 0 0)
(1632.94 -0 0)
(-8538.28 0 0)
(-38532.2 0 0)
(-53060.9 0 0)
(-47744.3 0 0)
(-73246 0 0)
(-66099.9 0 0)
(-81852.5 0 0)
(-81159.2 0 0)
(-76182.5 0 0)
(-59583.9 0 0)
(-74805.1 0 0)
(-93383.7 0 0)
(-88450 0 0)
(-79874.4 0 0)
(-74393.6 0 0)
(-79267.8 0 0)
(-85206.6 0 0)
(-83456 0 0)
(-68314.9 0 0)
(-75400.2 0 0)
(-63784.8 0 0)
(-58968.9 0 0)
(-77335.9 0 0)
(-72001.3 0 0)
(-82208.7 0 0)
(-100832 0 0)
(-86282.5 0 0)
(-91677.6 0 0)
(-77857.6 0 0)
(-65614.8 0 0)
(-74201.6 0 0)
(-60439.8 0 0)
(-67923.3 0 0)
(-56755 0 0)
(-68921 0 0)
(-61154.9 0 0)
(-72292 0 0)
(-58002.5 0 0)
(-54224.3 0 0)
(-61828.5 0 0)
(-79295.3 0 0)
(-71973.5 0 0)
(-55327 0 0)
(-61019.9 0 0)
(-45534.9 0 0)
(-62250.7 0 0)
(-57841.9 0 0)
(-69722.9 0 0)
(-67775.4 0 0)
(-52381 0 0)
(-32829.4 0 0)
(-49494.3 0 0)
(-36183.9 0 0)
(-17388.6 0 0)
(-25480.8 0 0)
(-37449.7 0 0)
(-50962.3 0 0)
(-41438 0 0)
(-49485.7 0 0)
(-48891.4 0 0)
(-36783.4 0 0)
(-29504.4 0 0)
(-28645.7 0 0)
(-34594.8 0 0)
(-15575.4 0 0)
(-16729 0 0)
(-6147.3 0 0)
(-8455.89 0 0)
(-9719.9 0 0)
(-10698.7 0 0)
(-69266.2 0 0)
(-49451.9 0 0)
(-4293.94 0 0)
(6276.29 -0 0)
(4303.72 -0 0)
(-4533.86 0 0)
(8987.75 -0 0)
(7520.52 -0 0)
(1647.48 -0 0)
(9089.66 -0 0)
(12412.9 -0 0)
(-4002.13 0 0)
(-8414.68 0 0)
(-5552.72 0 0)
(2560 -0 0)
(-11210.6 0 0)
(-10360.6 0 0)
(-17964.3 0 0)
(1801.59 -0 0)
(2600.89 -0 0)
(-500.222 0 0)
(9644.4 -0 0)
(19448.8 -0 0)
(21314.4 -0 0)
(19810.9 -0 0)
(22586.4 -0 0)
(24410.7 -0 0)
(23066.3 -0 0)
(4152 -0 0)
(-12768.2 0 0)
(-14997.9 0 0)
(-39771.7 0 0)
(-41608.1 0 0)
(-55052.2 0 0)
(-52974.6 0 0)
(-76112 0 0)
(-69156.3 0 0)
(-84303.4 0 0)
(-78079.4 0 0)
(-70712.3 0 0)
(-91832.3 0 0)
(-88969.6 0 0)
(-77292.1 0 0)
(-66625.8 0 0)
(-80368.7 0 0)
(-82277.6 0 0)
(-83987.2 0 0)
(-74881.8 0 0)
(-70614.4 0 0)
(-73369.3 0 0)
(-66093.1 0 0)
(-54263.2 0 0)
(-58317.6 0 0)
(-78661.8 0 0)
(-80757.1 0 0)
(-76111.7 0 0)
(-94609.3 0 0)
(-87474.7 0 0)
(-75395.6 0 0)
(-61259.7 0 0)
(-64490.9 0 0)
(-79490.9 0 0)
(-77515.6 0 0)
(-66763.1 0 0)
(-49351 0 0)
(-67464.3 0 0)
(-65587.6 0 0)
(-82596.9 0 0)
(-71669.3 0 0)
(-48780.8 0 0)
(-53917.6 0 0)
(-63635 0 0)
(-51863.7 0 0)
(-44023 0 0)
(-52686.4 0 0)
(-36769.7 0 0)
(-49964 0 0)
(-36966.7 0 0)
(-43650.1 0 0)
(-27651.1 0 0)
(-29487.4 0 0)
(-44038 0 0)
(-30357.9 0 0)
(-41554.3 0 0)
(-34974.9 0 0)
(-47511 0 0)
(-44561.9 0 0)
(-38008.9 0 0)
(-50640 0 0)
(-47920.6 0 0)
(-59764.2 0 0)
(-50082.9 0 0)
(-30782.8 0 0)
(-39668.7 0 0)
(-30153.1 0 0)
(-12815 0 0)
(-21698 0 0)
(-14299 0 0)
(-25967.2 0 0)
(-33567.5 0 0)
(-79111.8 0 0)
(-70711.5 0 0)
(-12667.9 0 0)
(-6588.8 0 0)
(-13611.7 0 0)
(-13894.8 0 0)
(645.419 -0 0)
(-6570.37 0 0)
(3574.67 -0 0)
(19179.4 -0 0)
(14526 -0 0)
(12859.7 -0 0)
(6202.76 -0 0)
(-7104.67 0 0)
(3540.76 -0 0)
(-2769.79 0 0)
(-11190.2 0 0)
(-16681.1 0 0)
(-4276.05 0 0)
(6918.28 -0 0)
(11642.7 -0 0)
(8564.29 -0 0)
(16039.9 -0 0)
(30795 -0 0)
(21020.7 -0 0)
(19743.9 -0 0)
(22104 -0 0)
(30246.2 -0 0)
(14401.2 -0 0)
(-6979.23 0 0)
(-35498.9 0 0)
(-41202.8 0 0)
(-58260.4 0 0)
(-63695.6 0 0)
(-65015.8 0 0)
(-61223.6 0 0)
(-85730 0 0)
(-83450.4 0 0)
(-77940.8 0 0)
(-78479.1 0 0)
(-77944.3 0 0)
(-73394.9 0 0)
(-72032.6 0 0)
(-72701.3 0 0)
(-73234.2 0 0)
(-72193.1 0 0)
(-72335.9 0 0)
(-75757 0 0)
(-73881.4 0 0)
(-66625.2 0 0)
(-71041.7 0 0)
(-59211.9 0 0)
(-48687.8 0 0)
(-53069.1 0 0)
(-44409.5 0 0)
(-65471.4 0 0)
(-53599.3 0 0)
(-68717.8 0 0)
(-58536.9 0 0)
(-33387.2 0 0)
(-38339.7 0 0)
(-49052.8 0 0)
(-30942.4 0 0)
(-34441.9 0 0)
(-44715.5 0 0)
(-55852 0 0)
(-49469.1 0 0)
(-61643.7 0 0)
(-43069.6 0 0)
(-51595.2 0 0)
(-30126.6 0 0)
(-32372.1 0 0)
(-30360.1 0 0)
(-46686.2 0 0)
(-47277.2 0 0)
(-30869.2 0 0)
(-33537.8 0 0)
(-49299.6 0 0)
(-35878.6 0 0)
(-49940 0 0)
(-43625.5 0 0)
(-23120.9 0 0)
(-35761.8 0 0)
(-25361.8 0 0)
(-39977.9 0 0)
(-32491.9 0 0)
(-26540.6 0 0)