/*--------------------------------*- C++ -*----------------------------------*\
| =========                 |                                                 |
| \\      /  F ield         | foam-extend: Open Source CFD                    |
|  \\    /   O peration     | Version:     5.0                                |
|   \\  /    A nd           | Web:         http://www.foam-extend.org         |
|    \\/     M anipulation  |                                                 |
\*---------------------------------------------------------------------------*/
FoamFile
{
    version     2.0;
    format      ascii;
    class       volScalarField;
    location    "0.065";
    object      p;
}
// * * * * * * * * * * * * * * * * * * * * * * * * * * * * * * * * * * * * * //

dimensions      [1 -1 -2 0 0 0 0];

internalField   nonuniform List<scalar> 
4000
(
-304859
-304994
-305219
-304391
-303788
-304417
-305784
-307329
-307721
-307257
-306292
-306243
-308752
-311301
-314159
-317732
-319674
-319476
-317688
-313863
-309707
-304964
-297699
-287170
-271792
-252931
-227672
-196505
-159194
-113429
-67316.6
-20617.3
31300
81865.3
123959
167022
212487
251776
282256
307237
326417
341148
353368
355459
348978
338116
325763
307800
288947
273893
259367
247152
240671
233901
225225
216838
209610
202041
193835
185373
176768
169529
162036
158372
155601
151072
145445
143320
142435
138701
136717
135933
134538
132945
130885
128133
123350
117747
113392
109972
107673
104693
100964
97642.9
92741.1
86341.8
80956.7
75505.8
68179.7
60779.3
54781.8
49394.7
44421.4
40253.5
36789.5
32732.6
26935.8
20570.6
14359.6
6634.98
-304949
-305125
-305324
-304475
-303845
-304475
-305781
-307248
-307687
-307212
-306229
-306189
-308781
-311289
-314093
-317647
-319533
-319303
-317502
-313567
-309493
-304564
-297262
-286862
-271379
-252531
-227403
-196040
-158448
-112654
-66508.3
-19836.5
31654.2
81901.9
123603
166707
211924
250774
282004
307027
325913
340355
352253
354946
348120
337530
325478
306667
288532
273560
258574
246860
240494
233900
225157
216730
209633
201790
193946
185402
176730
169598
161987
158502
155635
151164
145459
143396
142521
138694
136660
135830
134460
132815
130744
128102
123318
117626
113288
109960
107694
104689
100907
97520.2
92665
86247.5
80838.7
75449.3
68162
60720.8
54778.6
49445.8
44441.6
40193.8
36841.5
32891
27086.3
20751.8
14295.8
6282.91
-304878
-305309
-305477
-304563
-304020
-304579
-305749
-307222
-307732
-307207
-306138
-306122
-308768
-311240
-314127
-317636
-319510
-319166
-317361
-313445
-309212
-304208
-297016
-286770
-271235
-251971
-227316
-195860
-158030
-112666
-65791.5
-18676.4
32077.3
81673.4
123697
166491
211537
250368
281231
307006
325590
339788
352442
354226
347151
337654
325114
305490
288128
273077
257500
246492
240327
233974
225097
216646
209688
201536
194117
185348
176606
169645
162080
158385
155649
151291
145342
143428
142521
138782
136653
135811
134491
132769
130516
127998
123249
117586
113175
109860
107745
104575
100968
97517.5
92635.1
86273.9
80670.1
75426.7
68130.7
60634.9
54742.2
49450.9
44420.5
40085.5
36854.7
33065.4
27412.6
21016
14159
5925.92
-304627
-305497
-305583
-304647
-304198
-304727
-305783
-307184
-307747
-307196
-306044
-306037
-308690
-311184
-314223
-317650
-319558
-319177
-317231
-313401
-309105
-303949
-296865
-286648
-271205
-251929
-227167
-195794
-157903
-112927
-65290.5
-17850.7
32379.2
81705.1
123764
166029
211183
250238
280711
306853
325457
340031
352644
354151
347243
337901
324287
304847
288654
272206
256281
246599
240145
233805
225299
216866
209563
201340
194238
185165
176371
169617
161997
158273
155743
150952
145384
143521
142575
138872
136690
135884
134468
132712
130478
127958
123211
117499
113023
109780
107684
104582
101055
97531.1
92623.1
86327.9
80591.5
75287.6
68093.1
60681
54718.6
49334.9
44384
40090.8
36750.4
33128.2
27878.5
21569.7
14452.5
5599.88
-304294
-305715
-305626
-304620
-304360
-304929
-305913
-307121
-307631
-307068
-305922
-306006
-308584
-311148
-314335
-317702
-319697
-319298
-317181
-313384
-309112
-303930
-296864
-286796
-271297
-252060
-227402
-195877
-157799
-113344
-64873.7
-17007.2
32140.2
81275.8
123598
166158
210966
249487
280785
306917
325618
340641
353303
354700
347120
338161
324902
304464
288765
272094
255775
246778
239360
234069
226144
216556
209642
201577
193987
184866
176490
169242
161745
158566
155439
150160
145570
143707
142523
139136
136864
136012
134649
132753
130414
127962
123285
117406
112781
109603
107696
104699
101108
97553.6
92571
86273.5
80581.3
75288.1
68000.3
60577.6
54754.2
49236.8
44268.2
40012.9
36420.6
33200.4
28525.3
22179.8
14614
5061.97
-303941
-306030
-305658
-304483
-304426
-305130
-306106
-307117
-307482
-306861
-305789
-305953
-308485
-311093
-314465
-317995
-319954
-319542
-317190
-313397
-309147
-304026
-297030
-287354
-271707
-252435
-227876
-196049
-158156
-113982
-65061
-16446
31703.7
80142.5
123648
166299
210661
249499
281524
306319
325236
342166
353946
355373
348360
338457
325569
304494
288591
272175
255832
246242
238401
234310
226557
216651
210131
201652
193831
184546
176148
169292
161976
158535
154766
149734
145658
143881
142541
139361
137245
136275
134822
132953
130511
127852
123262
117374
112379
109430
107968
104647
101182
97851
92406.8
86125
80534.1
75415.9
67896.8
60301.6
54727.1
49092.8
44172.9
39913.3
36110.5
33287.8
29003.9
22614.6
14521
4032.41
-303559
-306405
-305684
-304336
-304411
-305283
-306350
-307189
-307354
-306626
-305613
-305842
-308392
-311169
-314683
-318304
-320387
-320073
-317414
-313505
-309216
-304157
-297553
-288119
-272544
-253251
-228739
-196771
-158905
-115171
-65935.7
-16330.5
31473
79167
123024
166033
210124
248843
281742
306098
324819
342645
355315
356570
349228
340115
326768
304653
288697
272218
255952
245797
238104
234283
227180
217170
209888
201893
193698
184126
175813
169454
162089
158126
154159
149413
145961
144217
142725
139477
137394
136766
135166
133093
130620
127745
123273
117210
111831
109327
108227
104756
101302
97987.4
92430.3
86180.4
80254.8
75325.5
68020.4
60185
54358.5
48938.4
44234.7
39563.5
35804.6
33330.1
29258.9
22875
13842.6
3087.42
-303120
-306763
-305725
-304185
-304333
-305394
-306688
-307454
-307286
-306363
-305360
-305702
-308285
-311360
-314979
-318703
-321009
-320641
-317920
-313798
-309286
-304378
-298489
-288974
-273340
-254371
-229992
-198183
-160314
-116619
-66648.1
-16467.5
31103.5
77961.6
122238
165842
209784
248926
281196
305045
324584
342798
356135
358256
351052
341768
327212
305286
289165
272488
256282
245601
237781
234622
227975
217576
209777
202005
193516
183828
176037
169231
162047
157780
153697
149394
145928
144502
143042
139565
137636
137002
135462
133406
130471
127577
123233
117108
111461
109211
108439
104926
101652
98176.9
92309.9
86177.7
80191.4
75107.5
68173.5
60021.6
54039.7
48969
44014
39217.3
35512
33099.6
29399.9
22815.7
12946.4
2766.45
-302657
-307053
-305794
-304082
-304312
-305498
-307083
-307835
-307295
-306069
-305056
-305569
-308079
-311386
-315464
-319130
-321541
-321321
-318599
-314262
-309691
-304899
-299335
-290142
-274500
-255515
-231410
-199840
-161878
-118189
-67747.6
-16565.1
30841.6
77012.1
121583
165277
209887
248918
280114
304717
324339
342888
357434
359394
352063
342752
328035
306987
289631
272407
257198
245898
237682
235114
228138
218072
210430
201996
192856
184042
176616
169083
162090
157441
153291
149223
145869
144597
143388
139855
137986
137132
135748
133609
130292
127386
123280
117085
111161
109426
108551
105068
101926
98195.5
92499.5
86266.6
80171.1
74946.6
68275.8
60154.6
53943.3
48764.5
43782.8
38863.3
34934.5
32772.7
29458.4
22459.9
12104.5
2503.54
-302211
-307281
-305854
-304000
-304292
-305670
-307450
-308191
-307308
-305789
-304706
-305374
-307970
-311306
-315708
-319704
-322066
-321926
-319369
-315129
-310261
-305668
-300286
-291339
-275949
-256836
-233142
-201629
-163479
-119819
-69280.2
-17007
30561.4
75825.1
120781
165042
209477
248138
279583
304568
323964
343570
357966
359754
353636
343912
329088
308461
289895
272464
258133
246440
237940
235749
228029
219112
211271
201899
192797
184147
176737
169297
162043
157248
153299
148727
145656
144715
143594
140322
138404
137244
136120
133857
130111
127276
123473
117206
111179
109471
108560
105133
102189
98536.9
92704
86341.7
80456.5
74958.3
68423.5
60553.2
53794.8
48458.7
43508.6
38175.6
34241.7
32449
29224.6
21873.9
11684
2025.93
-301787
-307539
-305884
-303956
-304345
-305881
-307904
-308528
-307306
-305527
-304362
-305129
-307737
-311274
-315820
-320116
-322775
-322621
-320088
-316371
-311228
-306488
-301470
-292493
-277457
-258546
-235106
-203701
-165551
-122093
-71309.6
-17706.5
30067.5
74508.4
119670
165023
209037
247596
279040
304308
324160
343739
357495
360883
355404
345343
330233
309728
291064
272623
258369
247068
238921
236128
228257
220072
212052
201839
192904
184253
176845
169640
161843
157225
153451
148101
145025
144982
144102
140791
138568
137708
136825
133859
129874
127314
123852
117456
111338
109393
108451
105102
102452
99058.9
93012
86909.4
80669.7
75156.8
68704.6
60749.5
53427.5
48237.2
43180.6
37399.6
33628
31773.9
28530.4
21346.1
11343
1752.48
-301395
-307782
-305942
-303949
-304429
-306159
-308384
-308907
-307284
-305228
-304074
-304909
-307437
-311174
-316119
-320593
-323419
-323324
-321028
-317597
-312439
-307438
-302758
-294046
-279031
-260446
-237471
-206145
-167838
-124399
-73465.9
-18745.5
29397.2
73458.8
118651
165035
209133
246996
279105
304212
324465
344278
357747
361822
356688
346948
331574
311527
291999
272732
258435
247705
239909
236131
229124
221107
212013
202217
193082
184385
177171
170010
161662
157232
153611
147355
144694
145305
144415
141177
138582
138249
137453
133851
129569
127328
124376
117895
111419
109286
108259
104899
102681
99664
93650.9
87413.3
81035.3
75783.3
69121.5
60734.1
53159.6
47986.5
42827.2
36741.8
32857.8
30896.7
27442.3
20886.8
10814.8
1608.75
-301056
-307990
-306023
-303976
-304551
-306504
-308827
-309203
-307249
-304928
-303800
-304732
-307217
-311088
-316478
-321300
-324112
-323989
-321801
-318730
-313833
-308789
-304363
-295897
-280995
-262684
-239911
-208635
-169959
-126085
-75124.5
-19806.1
28610.6
72663.5
118097
164933
209497
246803
279041
304526
325051
344642
358674
362759
358193
348609
333059
313360
292809
273452
258662
248451
241004
236504
229919
222068
212637
202054
193210
184604
177516
170431
161546
157391
153794
146822
144239
145393
144869
141487
138566
138866
137680
133364
129123
127433
125050
118422
111517
109118
107767
104655
102934
99972.1
94422
88136.7
81899.1
76655.8
69333
60817.9
53092.3
47591.5
42315
35994.5
32026.2
29989
26324.8
20316.7
10420.5
1429.47
-300745
-308174
-306111
-304024
-304773
-306870
-309195
-309414
-307169
-304629
-303548
-304529
-306994
-311214
-316845
-321922
-324918
-324713
-322534
-319880
-314888
-310118
-306389
-298081
-283344
-265293
-242442
-211303
-171661
-127165
-76410.7
-20622.1
27596.5
71261.8
117607
165188
209054
246585
278977
304719
326284
345853
359483
363757
359868
350507
334792
314794
294254
275160
259323
248787
242108
237339
230605
222639
212802
201925
193609
185245
178063
170620
161718
157740
154178
146470
143727
145795
145096
141656
138642
138922
137641
132904
128340
127534
125985
119079
111586
108772
107510
104321
102841
100059
95149.7
89290.6
82981.1
77184.9
69823.2
60917.2
53044.1
47276.7
41469
35184.7
31328.7
29156.8
25440.9
19588.1
10437.1
1096.69
-300449
-308321
-306210
-304114
-305034
-307173
-309489
-309588
-307070
-304380
-303367
-304369
-306805
-311332
-317197
-322412
-325533
-325507
-323446
-320931
-315940
-311315
-308433
-300629
-285959
-267976
-245358
-214469
-173863
-128519
-77907.4
-21951.6
26277.1
70153.3
116735
165288
208682
246122
278750
305147
327643
346848
360406
364881
361848
352790
336872
316345
295973
277022
260150
249138
242596
238468
231772
222821
212661
201902
193365
186233
178783
170969
162008
158083
154775
146191
143164
145886
145566
141789
137964
138868
137462
132457
127888
127442
126865
119820
111446
108286
107186
103887
102686
100605
96167.1
90218.1
83474.8
77955.3
70409.4
60691.9
53040.8
47225.8
40821.5
34395.8
30766.3
28691.7
24992.5
19090.2
10657
693.652
-300206
-308455
-306330
-304351
-305310
-307451
-309747
-309737
-306961
-304215
-303219
-304194
-306740
-311361
-317343
-322777
-325919
-326378
-324707
-322194
-317376
-312930
-310577
-303473
-288856
-270642
-248320
-217860
-176426
-130509
-79724.6
-23543.9
24768.2
69495.1
116172
165574
209170
246126
278151
305392
328906
347899
361447
366430
363944
355435
339168
318062
297944
278780
261358
249424
243186
239043
232097
223453
212848
201829
193680
186928
179415
171246
162262
158575
155091
146281
143020
145804
145656
141811
137358
138103
137041
131882
127418
127403
127391
120485
111577
107819
106458
103450
102540
101447
97349.1
90935.4
84111
78849.8
70625.6
60742.7
53231.9
46905.1
40156.8
33836.7
30529.6
28700.6
25212.3
19546.6
11423.4
1146.59
-299978
-308603
-306489
-304623
-305671
-307772
-310009
-309827
-306881
-304144
-303134
-304107
-306534
-311259
-317296
-323013
-326247
-327359
-326225
-323871
-319201
-314872
-312863
-306706
-292116
-273241
-250705
-221084
-179377
-132706
-81340.2
-24989.7
23281
68496.7
116191
166451
209876
245652
277684
306200
330507
349020
362807
368027
366161
358452
341383
320209
300327
280413
262081
250287
244067
239565
232073
223711
213680
201957
193711
187888
180353
171193
162606
159070
154946
146626
143080
145112
145405
141632
137120
136933
136224
130930
127006
127576
127755
121508
111979
107361
105628
102925
102585
102002
98391.6
91982.8
85147.6
79464.9
70775.2
60768.6
53115.6
46774.4
39815.4
33447.2
30453.3
29095.8
25903.2
20609.9
12650.5
2505.33
-299775
-308764
-306784
-304970
-305942
-308201
-310401
-309869
-306810
-304203
-303238
-303978
-306311
-311155
-317191
-323110
-326444
-328383
-327951
-325811
-321400
-317290
-315318
-309975
-295969
-276194
-252761
-223970
-182548
-134581
-82616.4
-26429.9
21991.1
67179.2
116048
167381
210323
244991
277444
308041
332278
350077
364170
369869
368698
361262
343778
322606
302970
281988
263106
251021
244337
240277
232672
223787
214250
202557
194023
188577
180820
171447
163424
159230
154776
146949
143003
144375
144574
141577
137048
135628
134882
130040
126563
127928
128497
122414
112419
106901
104756
102412
102531
102494
99548
93238.2
86279.7
80157.2
71195.5
60969.2
53169.7
46824.2
39811.2
33359.9
30553.8
29495.8
26565.1
21416.7
13673.1
4554.43
-299689
-308942
-307170
-305332
-306270
-308677
-310709
-309797
-306756
-304352
-303398
-303815
-306043
-310918
-317114
-323166
-326535
-329322
-329607
-327588
-323558
-319905
-317878
-312898
-300052
-280057
-255445
-226630
-185646
-136580
-83732.2
-27782
20461.4
65896.8
116020
168104
210620
244742
278201
309902
333790
351209
365485
372226
371596
363900
346552
325362
305500
283986
264281
251283
244695
240481
232960
224345
214578
203205
194351
189133
181171
171884
164085
159344
154800
147138
142699
143988
144265
141078
136529
134299
133435
129163
126064
128289
129096
123138
112921
106397
103778
101884
102529
103308
100871
94440.2
87743.9
81269.7
71923.7
61223.5
53368.9
47002
39967.9
33370.5
30640.6
29672.7
26852.9
21945.8
14383.5
6750.45
-299748
-309159
-307673
-305792
-306563
-309082
-310925
-309664
-306722
-304544
-303522
-303648
-305741
-310564
-316851
-323030
-326481
-329921
-330977
-329378
-325601
-322498
-320407
-315360
-303928
-284450
-258889
-229688
-188660
-138845
-84950.9
-29509.2
18549.3
64885.4
116493
168678
210545
245065
279199
311026
334974
352683
367140
374479
374403
366666
349904
329049
308099
285772
265516
251846
244575
240542
233264
224415
214866
203930
195116
189856
181693
172253
164473
159688
154910
147325
142032
143454
144353
140770
135675
132746
131877
128152
125450
128617
129776
123765
113557
105929
102711
101454
102713
104423
101918
95738.1
89350.8
82757.2
73194.7
61453
53558.2
47010.8
39835.7
33481.1
30610.3
29517.2
26761.7
21954.7
15858.6
9319.06
-299935
-309419
-308242
-306322
-306786
-309349
-311127
-309606
-306699
-304712
-303655
-303467
-305414
-310080
-316404
-322538
-326479
-330222
-331951
-331166
-327752
-325076
-323001
-317598
-307017
-288193
-262642
-232988
-192059
-141019
-86406.9
-31620.7
16639.1
64242.3
116933
168806
210603
245427
279857
311855
336091
354170
368741
376517
376969
369707
353704
333435
311444
287444
266550
252284
244496
240615
233806
224538
214879
204804
196319
190563
181993
172636
165058
159848
155217
147584
141288
142798
144200
140675
134986
131267
130061
126902
124657
128643
130512
124489
113881
105446
101763
100886
102758
105304
102810
96931.1
90766.8
84277.2
74692.4
62136
53722.9
47260.5
39529.1
33264.9
30491.6
29053.8
26592.7
21818
17745.8
12036.4
-300294
-309648
-308765
-306763
-306900
-309521
-311374
-309693
-306797
-304876
-303717
-303147
-304855
-309241
-315641
-321776
-326674
-330773
-332592
-332341
-329940
-327736
-325780
-320164
-309858
-291333
-265911
-236007
-195469
-143755
-88152.4
-33841.9
14843.6
63593.5
117099
169058
210995
246062
280521
312624
337194
355533
370136
378298
379341
372676
357765
338152
315043
289627
267366
252406
244452
241050
234362
224904
215441
205726
197306
191230
182554
173095
165511
159931
155832
147790
140926
142398
143857
140235
134130
130009
128281
125527
123625
128185
130839
124845
113754
104871
100912
100143
102641
105511
103444
97822.2
91992.6
85670.6
76191.1
63201.4
54231
47706.3
39469.9
33215.5
30488.4
28285.1
25928.6
21702.7
19921.3
14388.1
-300825
-309741
-309192
-307147
-306940
-309685
-311604
-309809
-306930
-305032
-303671
-302764
-304163
-308153
-314664
-320865
-326999
-331545
-333298
-333426
-332083
-330790
-328531
-323063
-312634
-294236
-268930
-238871
-198854
-146750
-90390
-36478
12864.7
62814.2
117179
169320
211788
247290
281518
313595
338360
356774
371322
379754
381323
375260
361406
342710
319109
292050
268228
251930
243829
241209
235006
225479
216201
206660
198263
192035
183399
173460
165329
160034
156565
148172
140518
142046
143973
139606
132946
128543
126589
124223
122618
127648
131016
124993
113407
104194
100232
99470.6
102389
105319
103664
98424.1
93011.2
86800.7
77492.4
64684.4
55274
48127
39822.9
33831.6
30549.3
27405.3
24965.2
21718.7
22152.7
16123.3
-301337
-309768
-309462
-307463
-307090
-309868
-311801
-309859
-306986
-305220
-303575
-302288
-303153
-306878
-313440
-319974
-327477
-332012
-334099
-334842
-334035
-333683
-331237
-325737
-315178
-297090
-271805
-241539
-202092
-150082
-93363
-39286.9
10825.2
62033.6
117138
169761
212786
248365
282349
314423
339326
357844
372457
381144
383099
377406
364313
346471
322959
294774
269012
250989
242750
240338
235243
226335
217363
207359
199261
193042
184163
173529
164876
160345
157484
148983
140175
141505
144064
139223
131947
126926
124734
123013
121753
127357
131332
124970
112913
103615
99715.6
98965
102074
105074
103625
98754.3
93747.3
87746.4
78834.9
66547.5
56526.6
48673
40467.4
34983.3
31025.3
26918.6
24031.9
22231.6
24474.7
17221.8
-301814
-309909
-309557
-307710
-307442
-310034
-312049
-310028
-306936
-305350
-303639
-301647
-301859
-305315
-311960
-319024
-327505
-331971
-334722
-336206
-336299
-336148
-333398
-327809
-317457
-299898
-274727
-244401
-205283
-153609
-96693.7
-42149.8
8890.94
61209.2
116744
169934
213449
248682
282391
314926
340385
359103
373640
382429
384596
379130
366622
349245
326129
297418
269480
250176
241642
238798
235067
227443
218405
208119
200214
193992
185069
173693
164758
160639
158466
149887
140039
141077
143959
138789
131148
125220
122680
121850
121154
126956
131634
125336
112631
102797
98892.6
98484.2
101823
104892
103558
98935.7
94247.3
88455.5
80121.9
68493.2
57766.3
49283.8
41256.5
36145.5
31793.7
26795.8
23580.1
23281.5
26541.3
17692
-302360
-310151
-309574
-307932
-307901
-310226
-312089
-310311
-307151
-305343
-303667
-301327
-300686
-303864
-310176
-317563
-326662
-331538
-335222
-337571
-338519
-337884
-335043
-329620
-319455
-302501
-277640
-247359
-208455
-157052
-99885.6
-45143.6
6491.57
59720.5
115947
169734
214043
249614
283057
315447
341104
360070
374710
383716
386162
380995
368677
351503
328589
299582
270290
249693
240339
237167
234536
228517
219155
208832
201260
194986
185871
174011
164650
160759
159278
150671
140012
140638
143460
138404
130450
123404
120513
120643
120719
126290
131824
126214
112560
101643
97743.7
97835
101569
104830
103478
98961
94576
89043.6
81286.9
70322.1
58816.9
49782.4
42044.4
37001.5
32410.5
26905.7
23675.4
24969.1
28383.7
17744.3
-303001
-310370
-309646
-308051
-308333
-310452
-312032
-310488
-307483
-305447
-303459
-300896
-299683
-302349
-307955
-315363
-325011
-330849
-335716
-339232
-340483
-339287
-336654
-331200
-321368
-304990
-280247
-249694
-211110
-160497
-103206
-47968.6
4407.05
58493.6
115293
169376
214180
250130
283694
315962
341902
361100
375673
384835
387749
382833
370485
354090
331168
301169
271211
250005
239629
236305
234350
229303
219847
209707
202162
195926
186662
174366
164538
160775
159726
151400
140409
140116
142700
138312
129815
121712
118305
119331
120336
125518
131710
127081
112472
100723
96625.9
97176.3
101325
104706
103311
99028.7
94822.7
89543.7
82327.8
71981.9
59907.8
50278.6
42697.8
37659.9
32939
27396.4
24245.4
26970.2
30028.7
17538.9
-303756
-310542
-309731
-308179
-308673
-310660
-311936
-310602
-307762
-305530
-303154
-300486
-299038
-301055
-305710
-312729
-322832
-330189
-336314
-341206
-341967
-340667
-338115
-332669
-322985
-306738
-282399
-252082
-213722
-163397
-106322
-51017.5
1919.72
56706.9
113882
168208
213723
250535
284460
316554
342561
361997
376614
385821
389271
384336
372281
357283
334483
302927
272222
250528
239448
236077
234622
229608
220191
210317
202791
196791
187640
175070
164586
160632
159727
152105
141287
139476
141693
138285
129422
120471
116189
117958
120041
124940
131306
127594
112412
99936.7
95721.4
96581.5
101010
104507
103114
99230.4
94937.8
89827
83230.5
73328.9
61047.3
50950.6
43291.1
38173.6
33527.8
28247.3
25169.8
29212.9
31678.4
17097.5
-304662
-310631
-309805
-308342
-308971
-310813
-311809
-310633
-307918
-305584
-302947
-300321
-298853
-300021
-303302
-310071
-320576
-329853
-337301
-343318
-342937
-341980
-339110
-333761
-324140
-308277
-284469
-254428
-216365
-166516
-109933
-54503.3
-829.509
54738.5
112237
166707
212833
250701
285077
317157
343296
362923
377556
386769
390255
385861
374752
360587
338566
305355
273562
251458
239512
236017
234991
229557
220349
210542
203006
197207
188441
175837
164868
160117
159102
152532
142115
138187
140088
138262
129504
119978
114574
116826
119884
124510
130762
127869
112818
99374.9
94892.9
96217.6
100858
104370
103000
99131.1
94806.3
89836
84004.2
74687.2
62217.7
51917.1
44091.2
38545.2
34154.3
29401.7
26449.5
31632.2
33353.8
16693.3
-305715
-310658
-309892
-308562
-309247
-310893
-311706
-310521
-307914
-305641
-302936
-300390
-298982
-298862
-300739
-307781
-318815
-329974
-338604
-344703
-343833
-342707
-339948
-334590
-325146
-309787
-286609
-257028
-219225
-169936
-113949
-58345.8
-3818.14
52567.9
110434
165100
211803
250732
285702
317818
344145
364013
378659
387939
391416
387622
377423
363941
342883
308527
275701
254412
241053
235519
234559
229641
221020
210548
202846
197304
189329
176912
165322
159366
157592
152186
142790
136991
137707
138182
130247
120358
113804
115997
119871
124197
130327
128219
113688
98943.2
94225.7
96043
100926
104497
102812
98571
94344.7
89828.1
84488.8
75843.2
63691.4
53002.1
44845.6
38860.8
34718.2
30558.7
28068.2
34100.8
34895.6
16139.9
-306879
-310665
-310014
-308816
-309475
-310923
-311535
-310353
-307867
-305707
-303009
-300708
-299249
-297705
-298442
-305491
-317340
-330309
-340354
-345064
-344483
-342659
-340450
-335309
-326169
-311344
-288870
-259762
-222266
-173672
-118299
-62452.8
-7009.34
50203.6
108493
163445
210793
250733
286434
318670
345177
365306
379998
389329
392889
389543
380182
367814
347639
312723
279926
261538
242857
234012
234138
229101
222408
211845
202729
197654
190601
178559
166336
157940
154815
151226
144202
136671
136336
139001
131862
121237
113702
115533
119947
123890
130050
128825
114747
98643
93527.4
96128
101250
104646
102735
97946
93396.4
89605.4
84936.8
76764.7
65049
54159.5
45439.7
39132.6
35112.9
31490.3
29871.1
36352.6
36561.3
15878.4
-308069
-310720
-310131
-309083
-309686
-310916
-311308
-310175
-307807
-305754
-303105
-300962
-299511
-296511
-296274
-303519
-316065
-330723
-341873
-345421
-344699
-342603
-340780
-335963
-327216
-312862
-291166
-262622
-225504
-177657
-122885
-66754.4
-10374.8
47677
106417
161727
209800
250739
287173
319699
346459
366832
381602
390948
394404
391277
382436
371065
353193
319119
285908
269825
245391
233138
235208
229553
223434
212889
202615
197739
191304
180656
168276
156857
151641
150560
147157
137887
137068
141086
134057
121724
113411
115558
120419
123898
129671
129380
115816
98462.3
92821.8
96599.7
102277
105015
102621
97402.3
92249.1
88953.2
85139.1
77851.2
66214.4
55108.7
46103.2
39395.6
35422.9
32208.6
31967
38540.2
38409.9
16019.6
-309313
-310801
-310239
-309350
-309912
-310846
-311051
-309988
-307816
-305787
-303309
-301313
-299512
-295282
-294424
-301941
-315192
-331279
-342880
-345933
-344831
-342825
-341263
-336668
-328275
-314405
-293466
-265524
-228893
-181839
-127636
-71190.7
-13885.2
44997
104214
159924
208740
250685
287866
320724
347754
368402
383259
392555
395851
392808
384569
373841
357935
325487
292132
275772
248060
233509
236935
231216
225011
213489
201728
198370
192794
181444
169954
157350
149444
150983
151274
140432
139766
144084
135200
120670
113490
116422
121376
124739
129542
129245
116064
98594.1
92815.6
97675.6
103145
105086
102809
97249.7
91378.4
88355.5
85002.2
78674.5
67219.8
55988.3
46848.9
39388.8
35769.8
32990
33828
40548.1
40848.6
16508.2
-310545
-310942
-310361
-309573
-310151
-310771
-310694
-309690
-307774
-305822
-303700
-301824
-299393
-294039
-292963
-300849
-314754
-331962
-343231
-345992
-344813
-343131
-341729
-337353
-329277
-315859
-295671
-268381
-232329
-186095
-132430
-75659.5
-17462.9
42224.4
101940
158061
207586
250502
288434
321637
348906
369727
384509
393528
396595
393531
385674
375282
360565
330770
297473
278745
249870
233951
238840
233346
225092
214802
202599
197755
193694
183226
172147
158612
148188
150934
154716
144136
143159
145182
134338
119861
114481
118454
121865
124882
130263
129342
115071
98440.6
93720.8
99194.2
104383
105055
102608
96970.7
91135.3
88278.7
84740.7
78935
67857
56689.8
47438.2
39342.1
36161.9
33938.6
35193.1
42266.1
43629.9
17206.9
-311640
-311104
-310476
-309839
-310389
-310652
-310261
-309336
-307630
-305908
-304157
-302605
-299523
-292948
-291722
-300104
-314615
-332396
-343248
-345507
-344630
-343414
-342085
-337850
-330030
-317039
-297561
-270946
-235538
-190129
-136972
-79885.5
-20852.2
39610.8
99831.7
156356
206525
250321
288963
322522
349987
370845
385373
393844
396337
392937
385045
374719
360529
334455
300733
278421
251256
235003
239319
233366
225277
216035
203314
199008
194800
182880
173327
160869
146954
149771
156365
146844
145282
145278
132467
118883
115583
121156
122471
123984
129967
128724
114703
98504.4
94813.9
100716
105276
105272
102564
95804.9
90460.1
89035.1
84684.3
78652.9
68337.7
57479.1
47722.2
39005.7
36226.8
34866.6
36402.6
43522.3
46279
18002.7
-312512
-311161
-310623
-310146
-310531
-310479
-309799
-309015
-307516
-306007
-304638
-303634
-300114
-292163
-290809
-299697
-314673
-332435
-342910
-344758
-344247
-343379
-342135
-338000
-330366
-317748
-298903
-272922
-238130
-193455
-140737
-83350.2
-23547.7
37673.3
98418.1
155319
206039
250588
289875
323789
351422
372232
386380
394130
395810
391802
383558
373181
359323
334885
301281
277598
252729
236892
238764
232928
225724
214838
202591
199125
195063
182896
173205
161825
145793
148261
156741
148615
146153
144524
130518
117948
116191
122959
123014
123161
128220
127388
114829
99057.9
95850.2
101464
105718
106620
103052
94319.1
89259.5
89330.6
84804.2
78255.3
68527.6
58068.5
47706.2
38741.4
36153.1
35251.2
37479.4
44490.8
48579.5
19348.6
-313108
-311210
-310775
-310338
-310539
-310191
-309453
-308843
-307357
-305935
-305115
-304778
-300846
-291726
-290367
-299419
-314547
-332478
-342474
-344013
-343665
-342999
-341909
-337835
-330281
-317942
-299598
-274142
-239858
-195741
-143310
-85600.3
-25078
36922.1
98268
155545
206709
251864
291717
325947
353717
374419
388115
395067
395871
391143
382409
371935
358555
332957
300656
277845
254614
238807
237046
232344
226205
213630
201182
199251
195088
182243
172614
161500
145327
147325
156770
150509
147056
142447
128007
117843
116635
123174
123506
122354
126522
126323
114759
100261
96687.2
101415
105802
107683
103595
93504.5
88058.2
88785.1
84754.4
77624.7
68485.3
58327.1
47205.9
38756.6
36222.7
35185.3
38098.4
45507.5
50650.5
21197.9
-313435
-311248
-310789
-310337
-310481
-309955
-309215
-308753
-307102
-305735
-305650
-305625
-301408
-291550
-290489
-299346
-314448
-332832
-342469
-343528
-343159
-342585
-341615
-337555
-330060
-317941
-299927
-274809
-240836
-197003
-144635
-86557.7
-25378.1
37455
99543.8
157265
208788
254387
294672
329134
356985
377497
390699
396832
396692
391174
381814
371002
357575
331947
299934
277854
256791
240186
235467
231634
226305
213071
201696
199740
194328
182057
172120
161007
145653
146549
156712
152263
147826
141484
126583
116648
116429
123066
124434
121995
124636
125860
114569
101116
98046.6
101439
105629
108294
103686
92695.1
87052.1
87529.4
84208.6
76891.6
68280.7
58348.6
46482.6
38536.5
36175.3
35300.5
38365.9
46278.5
52475.4
23142.8
-313486
-311174
-310640
-310297
-310334
-309762
-309150
-308661
-306778
-305537
-306063
-306065
-301288
-291510
-290991
-299604
-314990
-333742
-342922
-343444
-342936
-342450
-341674
-337597
-329974
-317898
-300036
-275048
-241176
-197438
-145020
-86660.1
-25013.3
38580.3
101478
159691
211498
257370
297901
332497
360355
380691
393482
399020
398167
391992
382034
370458
356420
331057
299688
277124
258213
240818
234460
230960
225801
213898
202056
199580
194356
182689
171470
160315
146611
146387
156171
153097
147995
141239
126308
116030
115822
122779
125209
122076
123721
125316
114543
101381
98291.8
101444
105695
108425
103520
92531
86625.4
86533.2
83675.1
76348.4
67723.4
58089.2