/*--------------------------------*- C++ -*----------------------------------*\
| =========                 |                                                 |
| \\      /  F ield         | foam-extend: Open Source CFD                    |
|  \\    /   O peration     | Version:     5.0                                |
|   \\  /    A nd           | Web:         http://www.foam-extend.org         |
|    \\/     M anipulation  |                                                 |
\*---------------------------------------------------------------------------*/
FoamFile
{
    version     2.0;
    format      ascii;
    class       volScalarField;
    location    "0.065";
    object      pd;
}
// * * * * * * * * * * * * * * * * * * * * * * * * * * * * * * * * * * * * * //

dimensions      [1 -1 -2 0 0 0 0];

internalField   nonuniform List<scalar> 
4000
(
-304859
-304993
-305219
-304390
-303787
-304417
-305783
-307329
-307720
-307257
-306292
-306243
-308752
-311301
-314159
-317732
-319674
-319475
-317687
-313863
-309706
-304964
-297699
-287170
-271792
-252931
-227671
-196504
-159194
-113428
-67316.2
-20616.8
31300.5
81865.8
123960
167023
212487
251776
282256
307237
326417
341148
353369
355460
348979
338116
325764
307800
288947
273893
259367
247152
240672
233901
225225
216839
209611
202042
193836
185373
176769
169529
162036
158372
155602
151072
145445
143321
142435
138701
136718
135933
134538
132945
130886
128134
123350
117748
113392
109973
107673
104694
100965
97643.3
92741.6
86342.3
80957.2
75506.3
68180.2
60779.8
54782.3
49395.2
44421.9
40254
36790
32733.1
26936.3
20571.1
14360.1
6635.47
-304949
-305125
-305323
-304474
-303845
-304474
-305781
-307247
-307687
-307212
-306229
-306188
-308781
-311288
-314093
-317646
-319533
-319303
-317502
-313566
-309492
-304563
-297262
-286862
-271378
-252531
-227403
-196040
-158447
-112654
-66507.9
-19836
31654.7
81902.3
123604
166708
211924
250774
282004
307028
325913
340356
352253
354946
348120
337530
325478
306667
288532
273560
258575
246861
240495
233900
225157
216731
209634
201791
193947
185402
176730
169599
161988
158503
155636
151165
145460
143397
142522
138694
136660
135831
134460
132815
130745
128103
123319
117627
113288
109960
107695
104690
100907
97520.7
92665.5
86247.9
80839.2
75449.8
68162.5
60721.3
54779.1
49446.3
44442.1
40194.3
36842
32891.5
27086.8
20752.3
14296.3
6283.4
-304877
-305309
-305477
-304563
-304020
-304579
-305749
-307222
-307731
-307207
-306137
-306122
-308767
-311239
-314126
-317636
-319510
-319165
-317361
-313445
-309211
-304208
-297016
-286769
-271234
-251970
-227316
-195859
-158029
-112666
-65791
-18675.9
32077.7
81673.9
123697
166492
211538
250369
281231
307006
325591
339788
352442
354226
347151
337655
325114
305490
288128
273077
257500
246493
240327
233974
225098
216646
209688
201536
194118
185348
176607
169646
162081
158385
155650
151291
145342
143428
142522
138783
136654
135811
134491
132769
130517
127998
123250
117587
113175
109861
107746
104575
100969
97518
92635.6
86274.4
80670.6
75427.2
68131.2
60635.4
54742.7
49451.4
44421
40086
36855.1
33065.9
27413.1
21016.5
14159.5
5926.41
-304626
-305496
-305582
-304647
-304197
-304726
-305783
-307184
-307746
-307195
-306043
-306037
-308689
-311184
-314222
-317649
-319558
-319177
-317230
-313400
-309104
-303949
-296865
-286648
-271204
-251929
-227167
-195794
-157903
-112927
-65290
-17850.2
32379.6
81705.6
123765
166030
211183
250239
280712
306854
325457
340032
352645
354152
347243
337901
324288
304848
288654
272206
256282
246600
240145
233806
225300
216867
209563
201340
194239
185166
176372
169618
161998
158274
155743
150952
145384
143521
142576
138872
136691
135885
134469
132713
130479
127958
123212
117500
113023
109781
107684
104583
101055
97531.6
92623.6
86328.4
80592
75288.1
68093.6
60681.5
54719
49335.3
44384.5
40091.3
36750.9
33128.7
27878.9
21570.2
14453
5600.37
-304293
-305715
-305625
-304620
-304360
-304928
-305912
-307121
-307631
-307068
-305922
-306006
-308584
-311147
-314334
-317701
-319696
-319297
-317181
-313383
-309112
-303930
-296863
-286795
-271297
-252059
-227402
-195876
-157798
-113343
-64873.2
-17006.8
32140.7
81276.3
123598
166159
210967
249487
280786
306918
325618
340642
353303
354700
347121
338161
324903
304464
288765
272095
255776
246778
239361
234069
226145
216556
209642
201578
193987
184866
176491
169243
161746
158567
155439
150161
145570
143707
142524
139137
136865
136012
134649
132753
130415
127962
123285
117407
112781
109604
107697
104699
101109
97554.1
92571.4
86274
80581.7
75288.6
68000.8
60578
54754.7
49237.3
44268.7
40013.4
36421.1
33200.9
28525.8
22180.3
14614.5
5062.46
-303940
-306029
-305658
-304483
-304426
-305130
-306106
-307117
-307481
-306860
-305788
-305952
-308485
-311093
-314465
-317994
-319954
-319541
-317190
-313397
-309147
-304025
-297030
-287353
-271707
-252435
-227875
-196048
-158156
-113982
-65060.6
-16445.5
31704.2
80143
123648
166300
210662
249500
281524
306320
325237
342166
353946
355374
348360
338458
325569
304495
288592
272175
255832
246243
238401
234311
226557
216651
210131
201653
193831
184546
176148
169292
161976
158536
154767
149734
145659
143881
142542
139362
137246
136275
134823
132954
130512
127852
123263
117375
112380
109430
107968
104647
101183
97851.4
92407.3
86125.5
80534.6
75416.3
67897.3
60302.1
54727.6
49093.3
44173.4
39913.8
36111
33288.3
29004.4
22615
14521.5
4032.9
-303558
-306404
-305684
-304335
-304410
-305283
-306350
-307189
-307354
-306626
-305612
-305841
-308392
-311168
-314682
-318303
-320386
-320073
-317413
-313505
-309216
-304157
-297552
-288118
-272544
-253250
-228739
-196771
-158904
-115171
-65935.2
-16330
31473.4
79167.5
123024
166034
210125
248843
281743
306098
324820
342645
355316
356570
349228
340116
326768
304653
288698
272219
255953
245797
238104
234283
227181
217170
209888
201893
193698
184126
175814
169455
162089
158126
154159
149414
145961
144218
142725
139477
137395
136766
135166
133094
130621
127745
123273
117211
111831
109328
108228
104757
101303
97987.9
92430.8
86180.9
80255.3
75326
68020.9
60185.5
54359
48938.9
44235.2
39564
35805.1
33330.6
29259.4
22875.4
13843.1
3087.91
-303120
-306763
-305725
-304184
-304332
-305394
-306688
-307454
-307286
-306362
-305360
-305702
-308285
-311360
-314978
-318703
-321008
-320640
-317920
-313798
-309285
-304377
-298489
-288973
-273340
-254370
-229991
-198182
-160313
-116619
-66647.6
-16467
31104
77962
122239
165843
209784
248927
281196
305045
324585
342798
356136
358257
351052
341769
327212
305287
289165
272488
256282
245601
237781
234622
227975
217577
209778
202006
193517
183828
176037
169231
162047
157780
153698
149395
145928
144502
143042
139565
137637
137003
135462
133406
130472
127578
123234
117108
111462
109211
108439
104926
101652
98177.4
92310.4
86178.2
80191.9
75108
68173.9
60022.1
54040.2
48969.5
44014.5
39217.8
35512.5
33100.1
29400.4
22816.2
12946.9
2766.94
-302657
-307052
-305794
-304081
-304312
-305498
-307083
-307835
-307295
-306069
-305055
-305569
-308078
-311386
-315464
-319130
-321541
-321320
-318598
-314262
-309690
-304899
-299334
-290141
-274500
-255514
-231409
-199840
-161878
-118189
-67747.1
-16564.6
30842.1
77012.6
121583
165278
209888
248919
280115
304717
324339
342888
357434
359395
352064
342752
328035
306988
289631
272407
257198
245898
237683
235115
228138
218072
210431
201997
192857
184043
176617
169084
162090
157442
153292
149223
145869
144597
143388
139856
137986
137132
135748
133610
130293
127386
123280
117086
111161
109427
108552
105069
101926
98196
92500
86267.1
80171.6
74947.1
68276.3
60155.1
53943.8
48764.9
43783.3
38863.8
34935
32773.2
29458.9
22460.4
12105
2504.03
-302210
-307281
-305853
-303999
-304292
-305670
-307450
-308190
-307308
-305789
-304705
-305373
-307970
-311306
-315708
-319704
-322065
-321925
-319369
-315128
-310261
-305668
-300286
-291339
-275948
-256836
-233141
-201628
-163479
-119818
-69279.7
-17006.5
30561.9
75825.6
120782
165043
209477
248139
279583
304568
323965
343570
357966
359754
353636
343913
329088
308461
289895
272464
258134
246441
237940
235750
228029
219113
211272
201900
192797
184147
176737
169298
162044
157249
153299
148727
145657
144716
143594
140322
138405
137244
136121
133857
130111
127276
123473
117207
111179
109471
108560
105133
102190
98537.4
92704.5
86342.2
80457
74958.8
68424
60553.7
53795.3
48459.2
43509
38176.1
34242.2
32449.5
29225.1
21874.4
11684.5
2026.42
-301786
-307538
-305884
-303955
-304345
-305880
-307904
-308528
-307305
-305527
-304362
-305129
-307737
-311274
-315819
-320116
-322774
-322621
-320087
-316371
-311227
-306487
-301469
-292492
-277456
-258546
-235105
-203700
-165550
-122093
-71309.1
-17706.1
30067.9
74508.9
119670
165023
209037
247597
279041
304309
324161
343740
357495
360883
355405
345343
330233
309729
291065
272623
258370
247069
238921
236128
228257
220072
212053
201839
192905
184254
176846
169641
161843
157226
153452
148102
145025
144982
144103
140791
138569
137708
136826
133859
129874
127315
123853
117457
111338
109394
108451
105102
102452
99059.4
93012.5
86909.9
80670.2
75157.3
68705.1
60749.9
53428
48237.7
43181.1
37400.1
33628.5
31774.4
28530.9
21346.6
11343.5
1752.97
-301395
-307781
-305941
-303949
-304428
-306158
-308384
-308907
-307284
-305227
-304074
-304908
-307437
-311174
-316118
-320592
-323418
-323324
-321027
-317597
-312438
-307437
-302757
-294045
-279031
-260446
-237470
-206145
-167837
-124399
-73465.5
-18745
29397.7
73459.3
118652
165035
209133
246997
279105
304213
324465
344279
357747
361823
356689
346949
331574
311527
291999
272733
258436
247706
239910
236132
229124
221107
212014
202218
193083
184386
177172
170011
161663
157233
153612
147355
144694
145306
144415
141178
138582
138249
137453
133851
129570
127328
124376
117895
111420
109287
108260
104900
102682
99664.5
93651.4
87413.8
81035.8
75783.8
69122
60734.6
53160
47987
42827.7
36742.2
32858.3
30897.2
27442.8
20887.3
10815.3
1609.24
-301056
-307990
-306022
-303976
-304551
-306504
-308826
-309202
-307248
-304927
-303799
-304731
-307217
-311088
-316477
-321300
-324112
-323989
-321800
-318730
-313833
-308789
-304362
-295897
-280995
-262684
-239911
-208635
-169958
-126085
-75124
-19805.6
28611.1
72664
118097
164933
209497
246803
279041
304527
325051
344642
358675
362760
358193
348610
333060
313361
292810
273453
258662
248452
241004
236504
229919
222068
212638
202054
193211
184604
177516
170431
161547
157392
153795
146823
144240
145394
144869
141487
138566
138867
137680
133364
129124
127433
125050
118423
111518
109118
107767
104656
102934
99972.6
94422.4
88137.2
81899.6
76656.3
69333.5
60818.4
53092.8
47592
42315.5
35995
32026.6
29989.5
26325.3
20317.2
10421
1429.96
-300744
-308174
-306111
-304024
-304773
-306869
-309195
-309414
-307169
-304628
-303547
-304528
-306994
-311213
-316845
-321922
-324918
-324712
-322533
-319880
-314887
-310118
-306389
-298080
-283344
-265292
-242442
-211302
-171660
-127164
-76410.3
-20621.6
27597
71262.3
117608
165188
209055
246586
278977
304719
326284
345854
359484
363757
359868
350507
334792
314794
294255
275161
259324
248787
242109
237339
230605
222639
212803
201925
193610
185245
178064
170620
161719
157740
154178
146471
143727
145796
145096
141657
138643
138923
137642
132905
128341
127534
125986
119079
111586
108773
107511
104322
102841
100060
95150.2
89291
82981.6
77185.4
69823.7
60917.7
53044.6
47277.1
41469.5
35185.2
31329.2
29157.3
25441.3
19588.5
10437.5
1097.18
-300448
-308321
-306209
-304113
-305034
-307172
-309489
-309587
-307070
-304379
-303366
-304369
-306804
-311332
-317197
-322411
-325533
-325506
-323446
-320931
-315940
-311315
-308433
-300628
-285958
-267975
-245358
-214469
-173862
-128519
-77906.9
-21951.1
26277.6
70153.8
116735
165289
208683
246122
278750
305148
327643
346849
360407
364882
361848
352790
336873
316346
295974
277023
260151
249138
242596
238469
231772
222822
212661
201903
193366
186234
178783
170969
162009
158084
154776
146191
143165
145887
145567
141789
137964
138868
137462
132457
127889
127442
126866
119820
111446
108287
107186
103887
102687
100605
96167.6
90218.6
83475.3
77955.7
70409.9
60692.4
53041.3
47226.3
40822
34396.3
30766.8
28692.2
24993
19090.7
10657.5
694.143
-300205
-308454
-306329
-304350
-305309
-307450
-309747
-309736
-306961
-304214
-303218
-304194
-306739
-311361
-317343
-322777
-325918
-326378
-324707
-322193
-317375
-312929
-310577
-303472
-288855
-270642
-248320
-217859
-176426
-130509
-79724.1
-23543.4
24768.7
69495.6
116172
165575
209171
246127
278151
305393
328907
347899
361447
366431
363944
355436
339168
318063
297944
278781
261359
249424
243186
239044
232098
223453
212848
201829
193681
186928
179416
171246
162262
158575
155092
146281
143020
145805
145656
141811
137358
138103
137042
131882
127418
127403
127392
120485
111577
107820
106458
103451
102540
101447
97349.6
90935.9
84111.5
78850.3
70626.1
60743.2
53232.4
46905.6
40157.3
33837.2
30530.1
28701.1
25212.8
19547
11423.8
1147.08
-299977
-308602
-306488
-304622
-305671
-307771
-310008
-309826
-306881
-304144
-303134
-304106
-306534
-311258
-317295
-323013
-326247
-327359
-326224
-323870
-319200
-314872
-312863
-306705
-292116
-273241
-250704
-221084
-179376
-132705
-81339.8
-24989.2
23281.5
68497.2
116191
166451
209877
245653
277684
306200
330508
349021
362808
368027
366161
358453
341383
320210
300327
280413
262081
250287
244067
239565
232073
223712
213681
201958
193712
187888
180354
171193
162606
159070
154946
146626
143081
145112
145406
141632
137121
136934
136225
130931
127007
127576
127755
121509
111980
107362
105629
102926
102585
102003
98392.1
91983.3
85148.1
79465.4
70775.7
60769.1
53116.1
46774.9
39815.9
33447.7
30453.8
29096.2
25903.6
20610.4
12651
2505.82
-299775
-308764
-306783
-304970
-305941
-308200
-310401
-309869
-306810
-304203
-303237
-303977
-306310
-311154
-317190
-323110
-326443
-328383
-327951
-325810
-321400
-317290
-315318
-309975
-295968
-276193
-252760
-223970
-182547
-134581
-82615.9
-26429.4
21991.6
67179.7
116048
167381
210324
244992
277445
308042
332279
350078
364170
369870
368698
361262
343778
322606
302971
281989
263106
251022
244338
240278
232672
223787
214250
202558
194024
188577
180820
171447
163425
159230
154777
146950
143004
144375
144575
141578
137048
135629
134883
130040
126564
127929
128498
122415
112420
106902
104757
102413
102532
102494
99548.4
93238.7
86280.2
80157.6
71196
60969.7
53170.2
46824.7
39811.7
33360.4
30554.3
29496.3
26565.6
21417.1
13673.6
4554.92
-299688
-308941
-307169
-305332
-306270
-308677
-310709
-309797
-306756
-304351
-303398
-303814
-306043
-310917
-317113
-323165
-326535
-329321
-329607
-327588
-323557
-319904
-317878
-312898
-300052
-280057
-255445
-226629
-185646
-136580
-83731.7
-27781.6
20461.9
65897.3
116020
168105
210621
244742
278201
309903
333791
351209
365486
372227
371596
363901
346553
325363
305501
283986
264282
251284
244695
240481
232961
224345
214578
203206
194352
189134
181172
171885
164085
159345
154800
147138
142700
143989
144265
141079
136530
134299
133435
129163
126064
128290
129097
123138
112921
106397
103779
101884
102529
103308
100871
94440.7
87744.4
81270.2
71924.2
61224
53369.4
47002.5
39968.4
33371
30641.1
29673.2
26853.4
21946.3
14383.9
6750.94
-299748
-309158
-307672
-305791
-306563
-309082
-310925
-309663
-306722
-304543
-303521
-303647
-305741
-310564
-316850
-323030
-326480
-329920
-330976
-329377
-325601
-322498
-320406
-315360
-303928
-284450
-258888
-229687
-188659
-138845
-84950.4
-29508.7
18549.8
64885.9
116493
168679
210545
245066
279199
311027
334975
352684
367141
374479
374403
366666
349905
329049
308099
285773
265517
251846
244575
240543
233264
224416
214866
203931
195117
189856
181693
172253
164473
159688
154911
147326
142032
143455
144354
140770
135676
132747
131878
128152
125450
128618
129776
123765
113558
105930
102712
101454
102714
104424
101919
95738.6
89351.3
82757.7
73195.2
61453.5
53558.6
47011.3
39836.2
33481.6
30610.8
29517.7
26762.2
21955.2
15859.1
9319.55
-299934
-309418
-308242
-306322
-306785
-309348
-311127
-309606
-306698
-304712
-303655
-303466
-305414
-310080
-316404
-322538
-326478
-330222
-331951
-331165
-327751
-325076
-323000
-317597
-307017
-288192
-262641
-232987
-192059
-141019
-86406.4
-31620.2
16639.6
64242.8
116933
168806
210603
245428
279858
311855
336091
354170
368742
376517
376969
369707
353704
333435
311444
287444
266551
252284
244497
240616
233806
224539
214879
204805
196320
190564
181994
172637
165059
159849
155218
147584
141288
142798
144200
140676
134986
131267
130062
126903
124657
128643
130513
124489
113882
105446
101763
100886
102759
105304
102810
96931.6
90767.3
84277.7
74692.9
62136.5
53723.4
47261
39529.6
33265.4
30492.1
29054.3
26593.2
21818.5
17746.3
12036.9
-300294
-309648
-308764
-306762
-306900
-309520
-311373
-309693
-306797
-304875
-303717
-303147
-304854
-309241
-315641
-321776
-326674
-330773
-332591
-332341
-329939
-327735
-325780
-320163
-309858
-291332
-265910
-236007
-195469
-143755
-88151.9
-33841.4
14844.1
63594
117100
169059
210995
246063
280521
312624
337195
355533
370136
378298
379341
372677
357766
338152
315043
289627
267367
252407
244453
241051
234363
224905
215441
205726
197307
191231
182554
173096
165512
159931
155832
147791
140926
142399
143857
140235
134130
130009
128282
125528
123626
128185
130839
124845
113755
104871
100913
100144
102641
105512
103445
97822.7
91993.1
85671.1
76191.6
63201.9
54231.5
47706.8
39470.4
33216
30488.9
28285.6
25929.1
21703.2
19921.7
14388.6
-300824
-309741
-309192
-307147
-306940
-309684
-311604
-309809
-306929
-305031
-303670
-302763
-304162
-308153
-314664
-320865
-326998
-331544
-333298
-333426
-332082
-330789
-328530
-323062
-312634
-294236
-268929
-238870
-198854
-146750
-90389.5
-36477.5
12865.2
62814.7
117180
169320
211789
247291
281518
313596
338361
356774
371322
379755
381324
375260
361406
342710
319109
292051
268228
251930
243829
241210
235006
225479
216201
206660
198263
192035
183400
173460
165329
160034
156565
148173
140519
142047
143974
139606
132947
128543
126590
124223
122618
127648
131016
124993
113408
104195
100232
99471
102389
105319
103665
98424.5
93011.7
86801.2
77492.9
64684.9
55274.5
48127.5
39823.4
33832.1
30549.8
27405.8
24965.6
21719.2
22153.2
16123.8
-301337
-309768
-309462
-307463
-307090
-309868
-311801
-309858
-306986
-305220
-303574
-302288
-303153
-306877
-313439
-319973
-327477
-332011
-334099
-334841
-334034
-333682
-331236
-325736
-315178
-297090
-271804
-241539
-202091
-150082
-93362.5
-39286.4
10825.7
62034.1
117139
169762
212786
248365
282350
314423
339326
357844
372457
381144
383099
377406
364313
346472
322959
294775
269013
250990
242750
240339
235243
226336
217363
207360
199262
193043
184164
173530
164877
160346
157484
148984
140176
141505
144065
139224
131947
126927
124735
123014
121754
127357
131332
124970
112914
103616
99716.1
98965.5
102075
105075
103625
98754.8
93747.8
87746.9
78835.4
66548
56527.1
48673.5
40467.9
34983.8
31025.8
26919.1
24032.4
22232
24475.2
17222.3
-301814
-309908
-309557
-307710
-307442
-310034
-312048
-310028
-306935
-305350
-303639
-301646
-301859
-305315
-311959
-319023
-327505
-331971
-334721
-336205
-336298
-336147
-333397
-327809
-317457
-299898
-274726
-244400
-205283
-153608
-96693.2
-42149.4
8891.43
61209.7
116745
169935
213449
248682
282392
314926
340385
359103
373640
382430
384597
379131
366622
349245
326130
297419
269481
250176
241642
238798
235068
227443
218405
208119
200215
193993
185069
173693
164759
160640
158466
149888
140040
141078
143960
138789
131148
125221
122681
121850
121154
126956
131635
125336
112632
102798
98893.1
98484.7
101823
104893
103559
98936.2
94247.8
88456
80122.4
68493.7
57766.8
49284.3
41257
36146
31794.2
26796.3
23580.6
23282
26541.8
17692.4
-302359
-310151
-309574
-307932
-307900
-310226
-312089
-310310
-307151
-305343
-303667
-301326
-300686
-303863
-310175
-317563
-326661
-331538
-335222
-337571
-338518
-337884
-335043
-329619
-319455
-302501
-277639
-247359
-208455
-157051
-99885.1
-45143.1
6492.06
59721
115947
169735
214043
249615
283058
315448
341105
360071
374710
383716
386162
380995
368678
351504
328590
299582
270290
249694
240340
237167
234536
228518
219156
208833
201261
194987
185871
174012
164651
160760
159279
150671
140013
140638
143460
138404
130451
123404
120514
120644
120720
126290
131825
126215
112561
101644
97744.2
97835.5
101569
104831
103479
98961.5
94576.5
89044
81287.4
70322.6
58817.4
49782.9
42044.9
37002
32411
26906.2
23675.9
24969.6
28384.2
17744.8
-303000
-310370
-309645
-308051
-308332
-310451
-312031
-310488
-307482
-305446
-303459
-300896
-299682
-302349
-307954
-315362
-325010
-330848
-335715
-339231
-340483
-339287
-336654
-331200
-321368
-304989
-280247
-249693
-211110
-160496
-103206
-47968.1
4407.54
58494.1
115294
169377
214181
250131
283695
315963
341902
361100
375673
384836
387750
382834
370485
354091
331168
301169
271211
250006
239629
236306
234351
229303
219847
209707
202163
195927
186662
174366
164539
160776
159727
151401
140410
140116
142701
138313
129815
121713
118306
119332
120337
125518
131710
127081
112473
100724
96626.4
97176.7
101325
104706
103311
99029.2
94823.2
89544.2
82328.3
71982.3
59908.3
50279.1
42698.3
37660.4
32939.4
27396.8
24245.9
26970.7
30029.2
17539.4
-303755
-310542
-309730
-308178
-308673
-310660
-311936
-310601
-307761
-305529
-303153
-300485
-299037
-301055
-305710
-312729
-322832
-330188
-336314
-341206
-341967
-340667
-338114
-332669
-322984
-306737
-282398
-252082
-213721
-163396
-106321
-51017
1920.21
56707.4
113883
168208
213723
250536
284460
316555
342562
361997
376615
385821
389271
384336
372281
357284
334484
302928
272223
250529
239449
236077
234623
229608
220191
210317
202792
196792
187640
175071
164587
160632
159728
152106
141287
139477
141694
138286
129422
120471
116190
117958
120042
124941
131306
127594
112412
99937.2
95721.9
96582
101010
104507
103115
99230.9
94938.3
89827.5
83231
73329.4
61047.8
50951.1
43291.6
38174.1
33528.3
28247.8
25170.3
29213.4
31678.9
17098
-304662
-310631
-309804
-308341
-308971
-310812
-311808
-310633
-307918
-305584
-302947
-300321
-298853
-300020
-303302
-310071
-320575
-329853
-337300
-343317
-342936
-341979
-339110
-333760
-324139
-308276
-284469
-254428
-216364
-166515
-109933
-54502.8
-829.019
54739
112237
166707
212834
250702
285077
317157
343296
362924
377556
386769
390255
385861
374753
360588
338567
305356
273562
251458
239512
236017
234991
229558
220349
210543
203007
197207
188442
175837
164868
160118
159102
152533
142116
138188
140089
138263
129504
119979
114574
116826
119884
124511
130763
127870
112818
99375.4
94893.4
96218
100859
104370
103001
99131.6
94806.8
89836.5
84004.7
74687.7
62218.2
51917.6
44091.6
38545.7
34154.8
29402.2
26449.9
31632.7
33354.3
16693.8
-305714
-310658
-309891
-308562
-309246
-310892
-311706
-310521
-307914
-305640
-302935
-300390
-298982
-298861
-300739
-307780
-318814
-329974
-338604
-344702
-343832
-342707
-339947
-334590
-325146
-309787
-286609
-257028
-219225
-169936
-113949
-58345.3
-3817.65
52568.3
110435
165100
211803
250733
285703
317818
344146
364013
378660
387939
391416
387623
377424
363942
342884
308527
275702
254412
241054
235519
234560
229642
221020
210548
202847
197304
189330
176912
165322
159367
157592
152187
142790
136991
137708
138182
130248
120359
113804
115997
119871
124197
130327
128220
113689
98943.7
94226.2
96043.5
100926
104497
102812
98571.5
94345.2
89828.6
84489.3
75843.7
63691.9
53002.6
44846.1
38861.3
34718.7
30559.2
28068.7
34101.3
34896.1
16140.4
-306878
-310664
-310013
-308816
-309475
-310922
-311535
-310353
-307867
-305706
-303008
-300708
-299249
-297705
-298442
-305490
-317339
-330308
-340353
-345064
-344482
-342659
-340449
-335308
-326168
-311344
-288869
-259762
-222265
-173672
-118298
-62452.3
-7008.85
50204.1
108493
163445
210793
250734
286434
318671
345177
365306
379998
389330
392890
389543
380183
367815
347640
312724
279927
261538
242857
234012
234138
229101
222408
211845
202730
197654
190602
178559
166337
157940
154816
151226
144203
136671
136336
139002
131863
121237
113702
115534
119948
123890
130050
128826
114748
98643.5
93527.9
96128.4
101250
104647
102736
97946.5
93396.9
89605.9
84937.3
76765.2
65049.5
54160
45440.2
39133.1
35113.4
31490.8
29871.6
36353.1
36561.8
15878.9
-308069
-310719
-310131
-309082
-309685
-310915
-311307
-310174
-307806
-305754
-303104
-300962
-299511
-296511
-296273
-303519
-316064
-330722
-341873
-345420
-344698
-342603
-340779
-335963
-327215
-312861
-291165
-262622
-225503
-177656
-122884
-66753.9
-10374.3
47677.5
106417
161727
209800
250740
287174
319700
346459
366833
381602
390949
394404
391277
382436
371066
353193
319119
285909
269826
245391
233138
235208
229554
223434
212889
202616
197739
191304
180656
168277
156858
151641
150560
147157
137887
137068
141087
134058
121724
113412
115558
120420
123898
129671
129380
115816
98462.8
92822.3
96600.2
102278
105015
102622
97402.8
92249.6
88953.7
85139.6
77851.7
66214.8
55109.2
46103.7
39396
35423.4
32209.1
31967.4
38540.7
38410.4
16020.1
-309312
-310800
-310239
-309349
-309911
-310845
-311050
-309987
-307816
-305786
-303308
-301312
-299512
-295282
-294423
-301941
-315191
-331278
-342880
-345932
-344831
-342825
-341263
-336667
-328275
-314404
-293466
-265524
-228893
-181839
-127636
-71190.2
-13884.7
44997.5
104214
159925
208740
250685
287866
320724
347755
368403
383260
392556
395851
392809
384570
373842
357936
325488
292132
275772
248061
233509
236936
231217
225012
213490
201729
198371
192794
181444
169954
157350
149445
150984
151274
140433
139767
144085
135200
120671
113491
116422
121377
124740
129542
129245
116065
98594.6
92816.1
97676.1
103146
105086
102809
97250.2
91378.9
88356
85002.7
78675
67220.3
55988.8
46849.4
39389.3
35770.3
32990.5
33828.5
40548.6
40849.1
16508.7
-310545
-310941
-310360
-309573
-310151
-310771
-310693
-309690
-307774
-305822
-303699
-301824
-299392
-294039
-292962
-300849
-314753
-331961
-343231
-345992
-344813
-343130
-341728
-337353
-329277
-315858
-295670
-268381
-232329
-186095
-132429
-75659
-17462.4
42224.9
101940
158061
207586
250503
288435
321638
348906
369727
384509
393528
396595
393532
385675
375282
360565
330771
297473
278745
249871
233951
238840
233347
225093
214803
202599
197755
193695
183227
172147
158613
148188
150935
154716
144137
143160
145182
134338
119862
114481
118455
121866
124883
130263
129342
115072
98441.1
93721.3
99194.7
104383
105056
102609
96971.2
91135.8
88279.2
84741.1
78935.5
67857.5
56690.3
47438.7
39342.6
36162.4
33939.1
35193.6
42266.6
43630.4
17207.4
-311640
-311103
-310475
-309838
-310388
-310651
-310261
-309336
-307630
-305907
-304157
-302605
-299523
-292948
-291721
-300104
-314615
-332396
-343248
-345506
-344630
-343414
-342084
-337849
-330030
-317038
-297561
-270945
-235538
-190128
-136971
-79885
-20851.7
39611.3
99832.2
156357
206525
250322
288963
322523
349988
370845
385374
393845
396338
392937
385045
374720
360529
334455
300733
278421
251256
235004
239320
233366
225277
216036
203315
199009
194800
182880
173328
160869
146954
149771
156366
146845
145282
145279
132468
118884
115583
121157
122471
123984
129967
128724
114704
98504.9
94814.4
100716
105276
105272
102565
95805.4
90460.6
89035.6
84684.8
78653.3
68338.1
57479.5
47722.7
39006.2
36227.3
34867.1
36403.1
43522.8
46279.5
18003.2
-312512
-311161
-310623
-310145
-310531
-310478
-309798
-309015
-307515
-306007
-304637
-303633
-300114
-292162
-290809
-299696
-314672
-332435
-342910
-344757
-344246
-343379
-342135
-337999
-330366
-317748
-298903
-272921
-238130
-193454
-140736
-83349.7
-23547.2
37673.8
98418.6
155320
206039
250588
289875
323789
351423
372233
386380
394131
395810
391803
383558
373182
359323
334886
301282
277598
252730
236893
238765
232929
225725
214839
202592
199125
195063
182896
173206
161825
145794
148261
156741
148615
146153
144525
130518
117949
116191
122959
123015
123161
128220
127389
114829
99058.4
95850.7
101465
105718
106621
103053
94319.6
89259.9
89331.1
84804.7
78255.8
68528.1
58069
47706.7
38741.9
36153.6
35251.7
37479.9
44491.3
48580
19349.1
-313108
-311210
-310774
-310338
-310538
-310190
-309452
-308842
-307357
-305935
-305114
-304777
-300846
-291726
-290367
-299418
-314546
-332477
-342473
-344013
-343664
-342999
-341909
-337834
-330280
-317942
-299598
-274141
-239857
-195740
-143310
-85599.8
-25077.5
36922.6
98268.5
155546
206709
251865
291717
325947
353718
374420
388115
395067
395871
391144
382410
371935
358555
332958
300657
277846
254615
238808
237047
232345
226205
213631
201183
199252
195088
182243
172614
161501
145328
147325
156770
150510
147056
142448
128007
117843
116635
123174
123507
122354
126522
126323
114760
100261
96687.7
101415
105802
107684
103595
93505
88058.7
88785.6
84754.8
77625.2
68485.8
58327.6
47206.4
38757.1
36223.2
35185.8
38098.9
45508
50651
21198.4
-313435
-311248
-310788
-310337
-310481
-309955
-309215
-308752
-307101
-305734
-305650
-305624
-301408
-291550
-290488
-299345
-314448
-332831
-342469
-343527
-343159
-342585
-341614
-337555
-330060
-317941
-299927
-274808
-240836
-197003
-144635
-86557.2
-25377.6
37455.5
99544.3
157266
208788
254387
294672
329135
356985
377498
390700
396833
396692
391175
381815
371002
357575
331947
299935
277855
256792
240187
235468
231634
226305
213072
201697
199741
194329
182057
172120
161007
145654
146550
156712
152263
147827
141484
126584
116648
116430
123066
124435
121995
124637
125860
114569
101117
98047.1
101440
105630
108294
103687
92695.6
87052.6
87529.9
84209.1
76892.1
68281.2
58349.1
46483.1
38537
36175.8
35301
38366.4
46279
52475.8
23143.3
-313485
-311174
-310639
-310296
-310333
-309762
-309149
-308661
-306778
-305536
-306063
-306065
-301288
-291510
-290990
-299604
-314989
-333741
-342921
-343444
-342935
-342449
-341674
-337596
-329974
-317897
-300036
-275047
-241176
-197437
-145019
-86659.6
-25012.8
38580.8
101478
159692
211498
257371
297901
332498
360356
380691
393482
399020
398168
391992
382034
370459
356421
331057
299688
277124
258214
240819
234460
230960
225801
213898
202056
199580
194357
182689
171471
160316
146611
146387
156171
153097
147996
141240
126309
116031
115823
122780
125210
122077
123721
125316
114544
101381
98292.3
101445
105695
108426
103520
92531.5
86625.8
86533.6
83675.6
76348.9
67723.9
58089.6
46175.4
38167.1