/*--------------------------------*- C++ -*----------------------------------*\
| =========                 |                                                 |
| \\      /  F ield         | foam-extend: Open Source CFD                    |
|  \\    /   O peration     | Version:     5.0                                |
|   \\  /    A nd           | Web:         http://www.foam-extend.org         |
|    \\/     M anipulation  |                                                 |
\*---------------------------------------------------------------------------*/
FoamFile
{
    version     2.0;
    format      ascii;
    class       surfaceScalarField;
    location    "0.065";
    object      phi;
}
// * * * * * * * * * * * * * * * * * * * * * * * * * * * * * * * * * * * * * //

dimensions      [0 3 -1 0 0 0 0];

internalField   nonuniform List<scalar> 
7860
(
0.0643803
-0.0593803
0.101005
-0.0366042
0.112637
-0.0116123
0.140991
-0.0283336
0.172227
-0.0312148
0.184693
-0.0124443
0.178321
0.00639422
0.140934
0.0374096
0.105443
0.0355147
0.0854328
0.0200341
0.0854302
2.71055e-05
0.114319
-0.028863
0.124682
-0.0103358
0.120183
0.00452685
0.0958961
0.0243164
0.0393156
0.0566116
-0.0465993
0.0859472
-0.138702
0.0921353
-0.221255
0.0825864
-0.28078
0.0595584
-0.390266
0.10952
-0.532967
0.142734
-0.728878
0.195943
-0.99724
0.268394
-1.23817
0.240965
-1.46463
0.226486
-1.74427
0.279669
-2.02734
0.283095
-2.28164
0.254321
-2.59889
0.31727
-2.93982
0.340946
-3.16795
0.228155
-3.31669
0.148754
-3.42733
0.110664
-3.53017
0.102855
-3.50863
-0.0215283
-3.39193
-0.116687
-3.25437
-0.137549
-2.9676
-0.286762
-2.66614
-0.301455
-2.38468
-0.28146
-2.10439
-0.280285
-1.8139
-0.290489
-1.42521
-0.388687
-1.09239
-0.332818
-0.798112
-0.294284
-0.494478
-0.303637
-0.336216
-0.158266
-0.133538
-0.202683
0.0265535
-0.160096
0.044713
-0.0181651
0.0931125
-0.048406
0.139584
-0.0464791
0.183873
-0.0442963
0.207564
-0.0236992
0.211258
-0.00370292
0.23069
-0.0194421
0.202879
0.0278022
0.247287
-0.0444177
0.262371
-0.0150939
0.243678
0.0186832
0.233563
0.0101046
0.171319
0.0622329
0.135752
0.0355561
0.100888
0.0348536
0.078352
0.0225243
0.0392962
0.0390446
0.0148161
0.0244688
0.00174072
0.013064
-0.0152015
0.0169308
0.00121279
-0.0164262
0.0488275
-0.047627
0.10295
-0.0541349
0.175428
-0.0724903
0.230658
-0.0552432
0.277004
-0.0463582
0.301383
-0.0243915
0.304784
-0.00341242
0.297082
0.00769022
0.284487
0.0125834
0.279976
0.00449913
0.285443
-0.0054783
0.317881
-0.0324491
0.368586
-0.0507173
0.440523
-0.0719491
0.479516
-0.0390046
0.503083
-0.0235795
0.549447
-0.0463762
0.56773
-0.0182944
0.552543
0.0151756
0.534833
0.0176995
0.516733
0.0180906
0.509246
0.0074774
0.497394
0.0118429
0.48598
0.0114057
0.486955
-0.000982321
0.492536
-0.00558761
0.484272
0.0082591
0.486549
-0.00228175
-0.0640226
0.170801
-0.225161
0.275951
-0.141709
0.346601
-0.0822188
0.431171
-0.112857
0.486896
-0.0868924
0.508601
-0.0341027
0.491275
0.0237671
0.416464
0.112271
0.343236
0.108794
0.307631
0.0556919
0.306592
0.00111956
0.317948
-0.0401608
0.344589
-0.0369172
0.347619
0.00155695
0.276284
0.0957164
0.183295
0.149669
0.0507501
0.218561
-0.0833342
0.226288
-0.220485
0.219807
-0.399948
0.239092
-0.563701
0.273341
-0.820402
0.399501
-1.17795
0.553552
-1.53023
0.62074
-1.89293
0.603716
-2.21249
0.546104
-2.60332
0.67054
-3.02823
0.708054
-3.48647
0.712593
-4.0808
0.911644
-4.62058
0.880758
-4.94997
0.557583
-5.17327
0.372092
-5.33481
0.272225
-5.29128
0.0593582
-5.16212
-0.150666
-4.91903
-0.359763
-4.55023
-0.506333
-4.27169
-0.565296
-3.88199
-0.691143
-3.5065
-0.656952
-3.13232
-0.654459
-2.55158
-0.871235
-2.07022
-0.870045
-1.59747
-0.805566
-1.06286
-0.828902
-0.687016
-0.679488
-0.37051
-0.474779
-0.0817801
-0.491422
0.16077
-0.402656
0.292257
-0.149663
0.349578
-0.10574
0.406042
-0.102956
0.455292
-0.0935614
0.480677
-0.0490995
0.496055
-0.019098
0.506622
-0.0300269
0.529381
0.00502569
0.565263
-0.0803184
0.586226
-0.0360745
0.573836
0.0310539
0.545413
0.038508
0.522631
0.0849957
0.407584
0.150582
0.341349
0.101068
0.277188
0.0866644
0.190417
0.125794
0.138964
0.0759009
0.0788511
0.0731545
0.0718527
0.0239065
0.091331
-0.0359286
0.180989
-0.13731
0.327532
-0.200704
0.48234
-0.227324
0.604329
-0.177258
0.673959
-0.116013
0.707005
-0.0574632
0.746796
-0.0432274
0.747738
0.00672402
0.724549
0.0357488
0.715934
0.0130908
0.693197
0.0172354
0.768321
-0.107598
0.882264
-0.164685
0.998107
-0.187816
1.10029
-0.141214
1.15341
-0.0767207
1.22388
-0.116869
1.26215
-0.0565958
1.25588
0.0214297
1.23624
0.0373179
1.19517
0.0591362
1.18575
0.0168815
1.17528
0.0222956
1.12595
0.0607239
1.05137
0.0735813
0.998848
0.0469235
0.909348
0.0977513
0.881935
0.0251264
-0.158583
0.215341
-0.435478
0.379345
-0.305666
0.528181
-0.231009
0.656622
-0.24125
0.741414
-0.171638
0.751725
-0.0443667
0.694856
0.0806844
0.631201
0.175978
0.582868
0.15718
0.555556
0.0830592
0.547217
0.00951641
0.563389
-0.0562735
0.59369
-0.0671586
0.589235
0.00607541
0.524173
0.160847
0.449909
0.224004
0.34705
0.321491
0.182756
0.390654
0.0225724
0.380061
-0.152045
0.413779
-0.388795
0.510161
-0.702387
0.713162
-1.07583
0.927059
-1.36978
0.914749
-1.70248
0.936464
-2.16316
1.00684
-2.5562
1.06362
-2.98834
1.14023
-3.49559
1.21988
-4.08882
1.50491
-4.64391
1.43588
-5.03501
0.948716
-5.25946
0.596575
-5.33959
0.352384
-5.33391
0.0536963
-5.23958
-0.244984
-5.03752
-0.561807
-4.72484
-0.819
-4.35843
-0.931698
-4.0067
-1.04287
-3.6739
-0.989749
-3.23109
-1.09726
-2.81507
-1.28725
-2.28185
-1.40327
-1.65864
-1.42878
-1.23339
-1.25415
-0.91695
-0.995932
-0.504049
-0.887687
-0.0610791
-0.934399
0.173417
-0.63716
0.374576
-0.350831
0.600508
-0.331682
0.683161
-0.185619
0.664305
-0.0747172
0.704218
-0.0890251
0.78092
-0.0958143
0.741629
0.00924933
0.773688
-0.0270487
0.810746
-0.117392
0.821778
-0.0471222
0.816902
0.0359142
0.777606
0.0777876
0.700585
0.162
0.666805
0.184345
0.611129
0.156726
0.438118
0.259658
0.378055
0.185838
0.350695
0.103241
0.318218
0.105612
0.290316
0.0517874
0.309742
-0.0553767
0.422384
-0.249977
0.533093
-0.311438
0.688504
-0.382761
0.877177
-0.365955
0.97667
-0.21553
1.03996
-0.120781
1.06672
-0.0700113
1.06688
0.00654402
1.05393
0.0486773
1.01731
0.0496887
1.05379
-0.019268
1.1163
-0.170133
1.23462
-0.283027
1.34223
-0.295446
1.43339
-0.232405
1.53676
-0.180115
1.57502
-0.155147
1.60988
-0.0914808
1.64243
-0.0111416
1.62413
0.0556001
1.55465
0.128601
1.51814
0.0533675
1.51063
0.029794
1.42625
0.145095
1.28657
0.213245
1.15049
0.182993
1.01192
0.236316
0.984675
0.0523689
-0.239333
0.216069
-0.646526
0.400235
-0.489788
0.590626
-0.421359
0.774603
-0.425183
0.882281
-0.279274
0.895156
-0.057198
0.822921
0.152967
0.755943
0.243004
0.734855
0.178319
0.728698
0.0892706
0.716698
0.0215718
0.719422
-0.0589412
0.752513
-0.100192
0.754842
0.00381083
0.727836
0.18792
0.665783
0.286126
0.561247
0.426096
0.409443
0.542526
0.197358
0.592213
-0.00645457
0.61766
-0.248824
0.752601
-0.604786
1.06919
-1.00363
1.32597
-1.37446
1.28563
-1.74323
1.30527
-2.19164
1.45529
-2.7272
1.59922
-3.23393
1.64699
-3.83673
1.82271
-4.51022
2.17843
-4.98552
1.9112
-5.2429
1.20612
-5.47734
0.831044
-5.61999
0.495063
-5.61169
0.0454074
-5.43745
-0.419204
-5.22732
-0.771923
-5.04248
-1.00384
-4.67082
-1.30335
-4.30314
-1.41055
-3.9334
-1.35949
-3.51689
-1.51378
-3.04087
-1.76327
-2.55357
-1.89057
-2.15938
-1.82296
-1.6977
-1.71584
-1.1511
-1.54254
-0.752278
-1.28651
-0.468316
-1.21837
-0.0833469
-1.02214
0.314017
-0.748202
0.557207
-0.57488
0.591158
-0.219579
0.682119
-0.165688
0.807469
-0.214385
0.756184
-0.0445404
0.78951
-0.0240889
0.915536
-0.153087
0.91118
-0.11305
0.910438
-0.0463935
0.96994
-0.0236009
0.905588
0.142126
0.866624
0.200951
0.928736
0.122219
0.796887
0.288561
0.587969
0.46856
0.537183
0.236609
0.517664
0.122744
0.454726
0.168533
0.459851
0.0466446
0.497753
-0.0932977
0.547349
-0.299594
0.70235
-0.46646
0.87587
-0.556303
0.989608
-0.479714
1.07679
-0.302733
1.17177
-0.215786
1.22715
-0.125404
1.22235
0.0113221
1.19631
0.0746975
1.2322
0.013769
1.28223
-0.0693196
1.33072
-0.218638
1.43832
-0.390655
1.54099
-0.398137
1.61468
-0.306119
1.70965
-0.275103
1.79817
-0.243686
1.81764
-0.110969
1.79738
0.0091009
1.78906
0.063901
1.75105
0.166596
1.69442
0.109984
1.62391
0.100295
1.48691
0.282087
1.35344
0.346701
1.18286
0.353564
0.853193
0.56598
0.658198
0.247362
-0.285348
0.211571
-0.853076
0.387736
-0.665912
0.583092
-0.616674
0.78753
-0.62958
0.931795
-0.423498
0.967773
-0.0931348
0.919497
0.201287
0.86093
0.301617
0.815665
0.223632
0.788989
0.115995
0.765595
0.0450186
0.78804
-0.0813328
0.824865
-0.136958
0.853016
-0.0242815
0.861054
0.179942
0.760954
0.386289
0.646008
0.541106
0.483967
0.704627
0.261171
0.815069
0.00383878
0.875057
-0.286699
1.04321
-0.623794
1.40635
-1.02696
1.7292
-1.4286
1.68732
-1.86427
1.74098
-2.40897
2.00003
-3.00073
2.19101
-3.67712
2.32342
-4.57479
2.72042
-5.34351
2.94718
-5.7825
2.35023
-5.92462
1.34827
-5.96615
0.872596
-5.98904
0.517976
-5.84225
-0.101369
-5.69572
-0.565713
-5.49944
-0.968196
-5.14071
-1.36256
-4.77738
-1.66667
-4.5532
-1.63472
-4.25946
-1.65322
-3.74194
-2.03129
-3.27412
-2.2311
-2.80162
-2.36307
-2.24464
-2.37994
-1.7823
-2.17818
-1.35077
-1.97407
-0.941856
-1.69544
-0.642174
-1.51805
-0.29891
-1.36541
0.0789173
-1.12604
0.276387
-0.772357
0.401524
-0.344723
0.504524
-0.268696
0.533388
-0.243258
0.616872
-0.128034
0.756291
-0.163519
0.775436
-0.172243
0.845787
-0.183413
0.883407
-0.0840255
0.812673
0.0471209
0.890131
0.0646563
0.993858
0.0972118
0.934835
0.18123
0.778232
0.445151
0.709026
0.537753
0.639841
0.305779
0.60458
0.15799
0.596526
0.176572
0.574102
0.0690534
0.632
-0.151212
0.688986
-0.356598
0.749501
-0.526994
0.883751
-0.690573
0.98813
-0.584113
1.01868
-0.333304
1.06875
-0.265875
1.15561
-0.212276
1.16583
0.00108139
1.18699
0.0535188
1.28698
-0.0862386
1.29412
-0.0764823
1.33348
-0.258022
1.47324
-0.530431
1.5598
-0.484714
1.65507
-0.401408
1.72828
-0.348328
1.79695
-0.312376
1.83336
-0.147398
1.83162
0.0108258
1.81645
0.0790624
1.78452
0.198508
1.73648
0.15801
1.64384
0.192921
1.52324
0.402679
1.35985
0.510082
1.05215
0.661259
0.5894
1.02873
0.415282
0.421478
-0.326229
0.198276
-1.04633
0.371448
-0.839045
0.560204
-0.805392
0.74872
-0.818056
0.898946
-0.573685
0.975303
-0.169451
0.949211
0.22742
0.883231
0.36764
0.833931
0.272977
0.790944
0.159029
0.772498
0.0635137
0.804829
-0.113613
0.858402
-0.190479
0.865779
-0.0316067
0.849316
0.196459
0.823333
0.412327
0.707536
0.656957
0.499145
0.913071
0.230699
1.08357
-0.0895053
1.19532
-0.407056
1.36082
-0.761692
1.76104
-1.18402
2.15157
-1.5756
2.07895
-2.08429
2.2497
-2.74838
2.66417
-3.54677
2.98944
-4.53715
3.31384
-5.59281
3.77613
-6.35856
3.71298
-6.69697
2.68867
-6.79565
1.44698
-6.65361
0.730585
-6.38879
0.253178
-6.21597
-0.274172
-6.02133
-0.760344
-5.77691
-1.2126
-5.54835
-1.59111
-5.31009
-1.90493
-4.9959
-1.94891
-4.6261
-2.02302
-4.29296
-2.36443
-3.78707
-2.73698
-3.25047
-2.89968
-2.78216
-2.84825
-2.1882
-2.77215
-1.67303
-2.48924
-1.29941
-2.06907
-0.949156
-1.86831
-0.611974
-1.70259
-0.326342
-1.41167
-0.0456887
-1.05302
0.222152
-0.612571
0.31572
-0.362271
0.442803
-0.370348
0.596258
-0.281497
0.615433
-0.182703
0.651528
-0.208349
0.717868
-0.249765
0.773877
-0.140046
0.819494
0.00149353
0.883625
0.00051359
0.907074
0.0737519
0.80585
0.282443
0.724732
0.526257
0.68425
0.578223
0.679191
0.310825
0.67358
0.163588
0.68533
0.164809
0.665411
0.0889588
0.637544
-0.123359
0.702105
-0.421175
0.80144
-0.626346
0.821444
-0.710595
0.831176
-0.593863
0.853964
-0.35611
0.903127
-0.315053
0.968562
-0.277728
1.00592
-0.0362948
1.05759
0.0018323
1.09499
-0.123654
1.1851
-0.166609
1.24656
-0.319502
1.26859
-0.552472
1.40517
-0.621316
1.58897
-0.585223
1.62709
-0.386458
1.61431
-0.299616
1.70535
-0.238449
1.7941
-0.0779403
1.7473
0.125855
1.72819
0.217604
1.71159
0.174592
1.56272
0.341785
1.41982
0.545571
1.18327
0.746626
0.778592
1.06593
0.328611
1.4787
0.220098
0.529988
-0.426472
0.174748
-1.21606
0.355808
-1.02007
0.52723
-0.976776
0.672449
-0.963236
0.802616
-0.703814
0.900341
-0.267138
0.911413
0.216388
0.851565
0.42753
0.788662
0.335924
0.738868
0.208869
0.734239
0.0681884
0.762261
-0.141589
0.81117
-0.239343
0.840702
-0.0610935
0.828761
0.208445
0.752569
0.488565
0.611447
0.798126
0.442604
1.08196
0.155244
1.37099
-0.198089
1.54871
-0.535376
1.69816
-0.932693
2.15841
-1.39773
2.61665
-1.87945
2.5607
-2.46925
2.83954
-3.31313
3.50808
-4.31171
3.98806
-5.50813
4.5103
-6.58705
4.8551
-7.03165
4.15762
-7.12493
2.78198
-7.15005
1.47214
-7.01773
0.598282
-6.80617
0.0416386
-6.55407
-0.52625
-6.29343
-1.02098
-5.98211
-1.5239
-5.61501
-1.9582
-5.40796
-2.11197
-5.21748
-2.13938
-4.81773
-2.42277
-4.38526
-2.7969
-4.02435
-3.0979
-3.52604
-3.39799
-2.90917
-3.46512
-2.40758
-3.27374
-2.0178
-2.87902
-1.61498
-2.47189
-1.24968
-2.23361
-0.91639
-2.03589
-0.631558
-1.69651
-0.369027
-1.31555
-0.144262
-0.837341
0.0495892
-0.556129
0.209149
-0.529916
0.319282
-0.391637
0.399785
-0.263215
0.469688
-0.278261
0.53698
-0.317068
0.622785
-0.225861
0.781832
-0.157564
0.815299
-0.0329642
0.814732
0.0743075
0.798876
0.298288
0.802909
0.522214
0.861023
0.520098
0.772246
0.39959
0.708826
0.226996
0.707551
0.166072
0.701944
0.0945533
0.726852
-0.14828
0.691935
-0.386273
0.688335
-0.622763
0.694735
-0.717011
0.607713
-0.506858
0.576695
-0.325108
0.577023
-0.315395
0.658867
-0.359585
0.786014
-0.163456
0.84035
-0.0525177
0.866227
-0.149544
0.937218
-0.237615
1.03977
-0.422073
1.07574
-0.588455
1.10705
-0.652635
1.22403
-0.702224
1.36817
-0.53061
1.3989
-0.330358
1.46296
-0.302521
1.54235
-0.157346
1.5958
0.0723973
1.63753
0.175865
1.52442
0.287684
1.39639
0.469811
1.22139
0.720562
0.876965
1.09104
0.448806
1.49408
0.0660291
1.86148
0.019268
0.576748
-0.511272
0.143576
-1.35462
0.313942
-1.1904
0.462469
-1.12527
0.57068
-1.07141
0.657943
-0.791041
0.741724
-0.350884
0.792508
0.165642
0.766753
0.453324
0.704764
0.397954
0.673525
0.240149
0.678882
0.0628737
0.684762
-0.147429
0.73686
-0.291402
0.807509
-0.131705
0.757223
0.258772
0.663219
0.582611
0.536838
0.924552
0.319602
1.29925
0.048751
1.64188
-0.287899
1.88541
-0.726055
2.13636
-1.20051
2.63291
-1.69512
3.11131
-2.40475
3.27037
-3.31131
3.74613
-4.29541
4.49222
-5.32069
5.01338
-6.35107
5.54074
-7.00622
5.5103
-7.3096
4.46104
-7.43947
2.91188
-7.3098
1.34249
-7.07504
0.363543
-6.78967
-0.243707
-6.52296
-0.792944
-6.2649
-1.27903
-5.9659
-1.82289
-5.75811
-2.16598
-5.57227
-2.29781
-5.17852
-2.53312
-4.79379
-2.8075
-4.40198
-3.18871
-3.9057
-3.59418
-3.54902
-3.75466
-3.22345
-3.7907
-2.81007
-3.68713
-2.31972
-3.36938
-1.81704
-2.97458
-1.44447
-2.60618
-1.20911
-2.27126
-0.909342
-1.99628
-0.650307
-1.57459
-0.405052
-1.0826
-0.198524
-0.762663
-0.132703
-0.595743
-0.0375925
-0.486755
0.152543
-0.453358
0.250598
-0.376325
0.249055
-0.315535
0.393257
-0.370073
0.534584
-0.298901
0.635812
-0.134203
0.690567
0.0195435
0.728155
0.260691
0.765667
0.484693
0.793862
0.491893
0.758388
0.435054
0.660734
0.324639
0.633434
0.193361
0.665456
0.0625204
0.665718
-0.148554
0.584349
-0.304918
0.503915
-0.542345
0.386041
-0.599155
0.289946
-0.410778
0.248663
-0.283837
0.247991
-0.314736
0.287329
-0.398935
0.393306
-0.269445
0.528591
-0.187815
0.543757
-0.164722
0.58709
-0.280962
0.61849
-0.453486
0.594772
-0.56475
0.705168
-0.763044
0.825384
-0.822453
0.946127
-0.651366
1.04653
-0.430774
1.13566
-0.391664
1.29846
-0.320157
1.39216
-0.021315
1.35614
0.211876
1.27811
0.365708
1.12317
0.624736
0.847328
0.996399
0.538886
1.39948
0.147789
1.88517
-0.135197
2.14446
-0.184767
0.626316
-0.498597
0.116474
-1.46607
0.250447
-1.32434
0.374671
-1.24946
0.441028
-1.13773
0.497328
-0.847308
0.543896
-0.397419
0.595126
0.114445
0.620804
0.42768
0.601763
0.417031
0.567892
0.274058
0.586204
0.0445982
0.646177
-0.207367
0.643671
-0.288863
0.660935
-0.148934
0.661212
0.258531
0.518667
0.725195
0.343873
1.09939
0.143806
1.49936
-0.155354
1.94109
-0.568527
2.29863
-1.02333
2.59121
-1.58322
3.19283
-2.30561
3.83374
-3.17652
4.14131
-4.18165
4.7513
-5.21064
5.52126
-6.2291
6.03189
-7.00367
6.31536
-7.34389
5.85057
-7.43072
4.54791
-7.37436
2.85555
-7.22386
1.19202
-6.96875
0.108455
-6.74691
-0.465539
-6.47415
-1.06568
-6.08891
-1.66427
-5.87497
-2.03682
-5.72939
-2.31155
-5.4341
-2.5931
-5.10105
-2.86617
-4.74458
-3.16397
-4.30243
-3.63085
-3.98513
-3.91149
-3.70397
-4.03582
-3.25256
-4.24211
-2.80212
-4.13757
-2.32421
-3.84729
-1.90653
-3.39226
-1.55488
-2.95783
-1.25397
-2.57217
-1.01607
-2.23419
-0.807561
-1.7831
-0.580996
-1.30917
-0.385675
-0.957989
-0.343845
-0.63758
-0.183282
-0.647324
-0.0325611
-0.604086
0.0774686
-0.486363
0.217541
-0.455617
0.285118
-0.437659
0.316892
-0.330683
0.437169
-0.254489
0.524263
-0.0675598
0.590043
0.194902
0.715788
0.358938
0.725222
0.482451
0.702901
0.457366
0.644758
0.382773
0.569959
0.26815
0.591275
0.0411946
0.559593
-0.116882
0.419966
-0.165303
0.262158
-0.384551
0.130936
-0.467947
-0.00646708
-0.273387
-0.0796564
-0.210659
-0.111899
-0.282504
-0.0910249
-0.41982
0.0394335
-0.399914
0.0940482
-0.24244
0.13003
-0.200715
0.142628
-0.293572
0.163942
-0.474812
0.245105
-0.645924
0.279469
-0.797418
0.349592
-0.892588
0.515823
-0.817609
0.668121
-0.583083
0.799614
-0.523169
0.968627
-0.489182
1.03162
-0.0843186
1.0311
0.212389
0.950389
0.446406
0.748737
0.826379
0.534891
1.21024
0.290192
1.64417
-0.0806018
2.25596
-0.294566
2.35842
-0.285607
0.617356
-0.446416
0.104697
-1.56575
0.183792
-1.4034
0.276251
-1.34188
0.299582
-1.16103
0.306317
-0.854014
0.348465
-0.439537
0.392097
0.0708418
0.425218
0.39459
0.437165
0.405116
0.452621
0.258637
0.476087
0.0211656
0.496364
-0.227612
0.515562
-0.30803
0.477324
-0.110664
0.43173
0.30416
0.345724
0.811238
0.128143
1.31701
-0.139012
1.76655
-0.444254
2.24637
-0.885974
2.74039
-1.44218
3.14746
-2.12342
3.87411
-2.99844
4.70879
-3.94024
5.08316
-4.95118
5.7623
-5.96721
6.53734
-6.83976
6.9045
-7.44053
6.91618
-7.58782
5.99789
-7.47694
4.43705
-7.24912
2.62776
-6.99713
0.940038
-6.76858
-0.120075
-6.56991
-0.664191
-6.3198
-1.31579
-6.0461
-1.93796
-5.80754
-2.27537
-5.53409
-2.585
-5.2772
-2.84998
-4.99296
-3.15041
-4.6481
-3.50882
-4.36964
-3.90931
-4.11405
-4.16708
-3.68053
-4.46934
-3.26203
-4.66062
-2.85473
-4.54487
-2.40562
-4.2964
-1.9828
-3.81509
-1.53091
-3.40973
-1.20207
-2.901
-1.02499
-2.41128
-0.84936
-1.95874
-0.607825
-1.55071
-0.481491
-1.08433
-0.39922
-0.719857
-0.306453
-0.740097
-0.190137
-0.720408
-0.102526
-0.573982
-0.0146956
-0.543455
0.0675299
-0.519893
0.144186
-0.407348
0.249315
-0.359626
0.325469
-0.143722
0.411224
0.109139
0.517664
0.252491
0.566131
0.433975
0.529153
0.494336
0.512364
0.399554
0.536246
0.24426
0.524543
0.0528886
0.42765
-0.0199979
0.323279
-0.0609436
0.183318
-0.244602
-0.0667444
-0.217896
-0.272573
-0.067569
-0.405278
-0.0779637
-0.476268
-0.211522
-0.498461
-0.397637
-0.466638
-0.431748
-0.414069
-0.295018
-0.377784
-0.237009
-0.385784
-0.285582
-0.381984
-0.478622
-0.324325
-0.703593
-0.221842
-0.899912
-0.0397805
-1.07466
0.0771964
-0.934596
0.243041
-0.748939
0.406668
-0.686807
0.488918
-0.571442
0.554246
-0.149657
0.606128
0.160498
0.554599
0.497926
0.435465
0.945505
0.327291
1.3184
0.0587588
1.91269
-0.2867
2.60141
-0.391041
2.46276
-0.350971
0.577285
-0.381651
0.0805382
-1.64128
0.112579
-1.43541
0.14811
-1.37738
0.131239
-1.14413
0.110974
-0.833722
0.13723
-0.465767
0.20777
0.000328849
0.249487
0.352902
0.286334
0.368301
0.328701
0.216302
0.338978
0.0109199
0.311527
-0.200132
0.285831
-0.282304
0.265298
-0.0901004
0.183502
0.385988
0.0626912
0.932083
-0.0982173
1.47795
-0.380884
2.04926
-0.773132
2.63866
-1.21916
3.18646
-1.85406
3.78239
-2.67576
4.69586
-3.61884
5.65191
-4.6608
6.12517
-5.64367
6.74522
-6.48269
7.37641
-7.23453
7.6564
-7.5955
7.2772
-7.43717
5.8396
-7.12541
4.12533
-6.83904
2.34141
-6.59121
0.692225
-6.41019
-0.301078
-6.15634
-0.918032
-5.91774
-1.55438
-5.72721
-2.12847
-5.52313
-2.47945
-5.34149
-2.76664
-5.0549
-3.13657
-4.79915
-3.40615
-4.56561
-3.74236
-4.28037
-4.19455
-3.89826
-4.54919
-3.56342
-4.80417
-3.23949
-4.98456
-2.86948
-4.91488
-2.46553
-4.70035
-1.97485
-4.30578
-1.66281
-3.72177
-1.38281
-3.18101
-1.13913
-2.65496
-0.951322
-2.14655
-0.787834
-1.7142
-0.705856
-1.16631
-0.547089
-0.878628
-0.443179
-0.844012
-0.414976
-0.748616
-0.307026
-0.681938
-0.22477
-0.625717
-0.165902
-0.578768
-0.0844108
-0.488846
0.0228413
-0.466885
0.109166
-0.230053
0.203554
0.0147439
0.314633
0.141404
0.389689
0.358912
0.458188
0.42583
0.4752
0.382534
0.453728
0.265724
0.416124
0.0904849
0.305356
0.0907624
0.167954
0.07645
-0.0331249
-0.0435322
-0.304928
0.0538981
-0.565773
0.193269
-0.765638
0.121893
-0.876506
-0.100662
-0.925773
-0.348379
-0.943323
-0.414207
-0.927049
-0.311301
-0.932124
-0.231943
-0.968283
-0.249432
-0.973863
-0.47305
-0.918899
-0.758565
-0.801089
-1.01773
-0.693772
-1.18199
-0.528362
-1.10002
-0.275743
-1.00157
-0.089816
-0.872743
-0.0109322
-0.650335
0.122029
-0.282627
0.164936
0.117582
0.134562
0.528292
0.0953244
0.984735
-0.0214033
1.43512
-0.205051
2.09634
-0.447594
2.84395
-0.437934
2.45309
-0.407704
0.547053
-0.210887
0.0414529
-1.67771
0.0407784
-1.4347
0.0232155
-1.3598
-0.0419701
-1.07892
-0.0965023
-0.779166
-0.0851923
-0.477055
-0.00223399
-0.0826059
0.0845193
0.266175
0.145017
0.307833
0.190261
0.171088
0.181689
0.019522
0.110711
-0.129125
0.0355793
-0.207143
0.0254297
-0.0799227
-0.0100412
0.421487
-0.124146
1.04622
-0.338106
1.69194
-0.645057
2.35624
-1.01763
3.01127
-1.53762
3.70649
-2.27036
4.51518
-3.18922
5.61477
-4.1107
6.57344
-5.05036
7.06488
-5.97547
7.67037
-6.7489
8.14989
-7.26903
8.17657
-7.30016
7.30837
-6.95487
5.49434
-6.5437
3.71418
-6.18845
1.98618
-5.95761
0.4614
-5.8334
-0.425273
-5.62833
-1.12309
-5.4044
-1.7783
-5.23286
-2.30001
-5.04557
-2.66673
-4.86113
-2.95107
-4.75412
-3.24358
-4.59194
-3.56833
-4.37409
-3.9602
-4.21159
-4.35705
-3.93136
-4.82943
-3.63168
-5.10385
-3.31638
-5.29986
-2.97481
-5.25645
-2.6004
-5.07476
-2.20427
-4.70192
-1.95649
-3.96955
-1.61317
-3.52433
-1.30409
-2.96404
-1.07837
-2.37227
-0.923013
-1.86956
-0.809779
-1.27955
-0.695502
-0.99291
-0.575835
-0.963683
-0.416164
-0.908292
-0.415758
-0.68235
-0.398733
-0.642747
-0.373181
-0.604325
-0.316473
-0.54556
-0.219283
-0.564081
-0.136707
-0.312636
-0.0402199
-0.081749
0.0740798
0.0270978
0.229926
0.20306
0.268208
0.387542
0.24184
0.408896
0.272312
0.235245
0.237869
0.124922
0.131207
0.197417
0.0129031
0.194747
-0.269037
0.238401
-0.64697
0.431824
-0.938761
0.485052
-1.1743
0.357427
-1.30543
0.0304624
-1.37808
-0.275742
-1.42877
-0.363523
-1.46755
-0.272526
-1.57053
-0.128973
-1.58836
-0.231604
-1.58896
-0.472458
-1.60102
-0.746519
-1.50095
-1.1178
-1.30489
-1.37806
-1.03421
-1.3707
-0.783333
-1.25246
-0.647297
-1.00879
-0.512765
-0.784874
-0.343621
-0.451779
-0.300932
0.0748865
-0.330861
0.558214
-0.389432
1.0433
-0.453044
1.49873
-0.512606
2.15589
-0.573435
2.90478
-0.43548
2.31514
-0.487644
0.599214
-0.00744044
0.00369094
-1.67639
-0.0346928
-1.3963
-0.100707
-1.29376
-0.219604
-0.960003
-0.313052
-0.685699
-0.299808
-0.490279
-0.211526
-0.170867
-0.116395
0.171069
-0.030151
0.221616
0.00456612
0.1364
-0.0474055
0.0715216
-0.133902
-0.0426032
-0.204535
-0.136486
-0.225611
-0.0588236
-0.198926
0.394826
-0.250799
1.09811
-0.495505
1.93668
-0.838339
2.69911
-1.28061
3.45358
-1.8654
4.29132
-2.59513
5.24496
-3.45897
6.47867
-4.35735
7.47186
-5.26065
7.96822
-6.08416
8.49392
-6.68426
8.75002
-6.96484
8.45719
-6.79639
7.13995
-6.34063
5.0386
-5.89769
3.27126
-5.5868
1.6753
-5.36873
0.24334
-5.23721
-0.556775
-5.1611
-1.19919
-4.9682
-1.97119
-4.73015
-2.53805
-4.58437
-2.8125
-4.44238
-3.09306
-4.34738
-3.33858
-4.3134
-3.6023
-4.13991
-4.13369
-3.91154
-4.58543
-3.78888
-4.95208
-3.59943
-5.29331
-3.38477
-5.51452
-3.09332
-5.5479
-2.72992
-5.43816
-2.45407
-4.97777
-2.11123
-4.31239
-1.70291
-3.93265
-1.36925
-3.2977
-1.1944
-2.54713
-1.06793
-1.99604
-0.952774
-1.39471
-0.824015
-1.12167
-0.72612
-1.06158
-0.742725
-0.891692
-0.706294
-0.718785
-0.694495
-0.654551
-0.653396
-0.64543
-0.575016
-0.623944
-0.550243
-0.58886
-0.430589
-0.432295
-0.33336
-0.178983
-0.203916
-0.102352
-0.072897
0.0720355
-0.0128343
0.327475
0.0588637
0.337193
0.0388755
0.255227
-0.00340949
0.167201
-0.0806637
0.274666
-0.340781
0.454859
-0.655712
0.553325
-0.967418
0.743525
-1.33566
0.853286
-1.57235
0.594108
-1.72105
0.179162
-1.81384
-0.182964
-1.91241
-0.264956
-2.02487
-0.160073
-2.04221
-0.111639
-2.0946
-0.179223
-2.17136
-0.395705
-2.15801
-0.759876
-2.03376
-1.24205
-1.7554
-1.65642
-1.50295
-1.62316
-1.33574
-1.41967
-1.10043
-1.2441
-0.946425
-0.93889
-0.837945
-0.560265
-0.759096
-0.00396878
-0.81803
0.617142
-0.838941
1.06421
-0.829266
1.48905
-0.789253
2.11588
-0.604282
2.7198
-0.364132
2.07498
-0.454743
0.689824
0.19384
-0.0388459
-1.63253
-0.111035
-1.32409
-0.227161
-1.17761
-0.399873
-0.787272
-0.509641
-0.575913
-0.50112
-0.498783
-0.404992
-0.266976
-0.308198
0.0742977
-0.24015
0.153592
-0.247682
0.143957
-0.319837
0.1437
-0.411039
0.0486188
-0.451308
-0.0961976
-0.428729
-0.0813845
-0.392538
0.358653
-0.454284
1.15988
-0.658635
2.14105
-1.00231
3.04282
-1.505
3.95631
-2.16485
4.95121
-2.94855
6.0287
-3.72236
7.25253
-4.49709
8.24663
-5.34126
8.81243
-5.98434
9.13704
-6.30661
9.07234
-6.34541
8.49601
-6.06963
6.8642
-5.68133
4.65033
-5.35606
2.946
-5.05708
1.37633
-4.91634
0.102617
-4.79524
-0.677871
-4.61957
-1.37485
-4.51139
-2.07936
-4.33022
-2.71923
-4.10683
-3.03588
-4.0225
-3.17738
-4.00338
-3.3577
-3.95006
-3.65562
-3.87364
-4.2101
-3.80723
-4.65184
-3.71052
-5.04879
-3.57909
-5.42474
-3.4055
-5.68811
-3.15761
-5.79579
-2.84396
-5.75181
-2.53727
-5.28446
-2.223
-4.62666
-1.89009
-4.26556
-1.60152
-3.58627
-1.4056
-2.74305
-1.34419
-2.05744
-1.17717
-1.56174
-0.958721
-1.34012
-0.897812
-1.12249
-0.891301
-0.898205
-0.878251
-0.731839
-0.962439
-0.570367
-0.928651
-0.679221
-0.865726
-0.686873
-0.799012
-0.655577
-0.708804
-0.522507
-0.617525
-0.270265
-0.512792
-0.20709
-0.42824
-0.0125205
-0.334697
0.233927
-0.31768
0.320172
-0.287978
0.225522
-0.336693
0.215912
-0.548161
0.486129
-0.771913
0.678606
-1.08547
0.86688
-1.43567
1.09372
-1.70612
1.12373
-1.98881
0.8768
-2.16898
0.359323
-2.29811
-0.0538402
-2.42368
-0.139392
-2.53433
-0.0494274
-2.6245
-0.0214694
-2.70989
-0.0938375
-2.73565
-0.369952
-2.5831
-0.912435
-2.35382
-1.47134
-2.15982
-1.85042
-2.00095
-1.78203
-1.73579
-1.68484
-1.50525
-1.47465
-1.42396
-1.02019
-1.33571
-0.648521
-1.19936
-0.140318
-1.1543
0.572075
-1.19635
1.10625
-1.14017
1.43286
-0.956644
1.93235
-0.595081
2.35824
-0.306318
1.78622
-0.427401
0.810905
0.394592
-0.0820515
-1.54547
-0.200068
-1.20605
-0.372933
-1.00473
-0.576829
-0.583361
-0.694506
-0.458221
-0.707075
-0.4862
-0.618327
-0.355707
-0.52427
-0.0197399
-0.478007
0.107351
-0.520499
0.186471
-0.610774
0.233993
-0.679442
0.117303
-0.719805
-0.0558196
-0.652984
-0.148191
-0.582443
0.288128
-0.644975
1.22243
-0.814137
2.31024
-1.15647
3.38518
-1.68568
4.48555
-2.31489
5.58045
-3.02478
6.73863
-3.81214
8.03992
-4.53765
8.97217
-5.25294
9.52775
-5.7568
9.64093
-5.86429
9.17985
-5.64355
8.27529
-5.23054
6.45122
-4.95151
4.37132
-4.65644
2.65094
-4.33023
1.05013
-4.17498
-0.0526266
-4.06951
-0.783332
-3.95079
-1.49356
-3.87379
-2.15636
-3.72683
-2.86618
-3.56451
-3.1982
-3.56433
-3.17756
-3.6748
-3.24722
-3.68128
-3.64915
-3.63601
-4.25536
-3.61318
-4.67467
-3.58955
-5.07241
-3.53186
-5.48243
-3.43042
-5.78956
-3.22006
-6.00615
-2.96526
-6.00661
-2.68042
-5.56931
-2.34326
-4.96382
-2.03481
-4.57402
-1.76709
-3.85399
-1.57806
-2.93209
-1.42399
-2.21152
-1.36818
-1.61754
-1.37764
-1.33067
-1.25931
-1.24083
-1.17506
-0.98246
-1.15588
-0.751018
-1.09218
-0.634074
-1.12745
-0.643952
-1.12252
-0.691808
-1.1016
-0.676501
-1.06296
-0.561141
-0.953776
-0.379457
-0.915736
-0.245133
-0.802927
-0.125333
-0.621406
0.0524023
-0.557984
0.256747
-0.639164
0.306698
-0.736775
0.313521
-0.863265
0.612615
-1.16603
0.981365
-1.52759
1.22844
-1.91332
1.47944
-2.26787
1.47827
-2.49827
1.1072
-2.71682
0.57787
-2.90033
0.129656
-2.97539
-0.0643274
-3.04976
0.024938
-3.20333
0.132097
-3.27738
-0.0197942
-3.28268
-0.364654
-3.15994
-1.03518
-2.91678
-1.71451
-2.70632
-2.06088
-2.40099
-2.08737
-2.1074
-1.97843
-1.94742
-1.63463
-1.77266
-1.19495
-1.62671
-0.794471
-1.58248
-0.184561
-1.54783
0.537427
-1.46914
1.02755
-1.35209
1.31581
-1.13112
1.71137
-0.692451
1.91956
-0.354053
1.44782
-0.365246
0.822097
0.581402
-0.12249
-1.41797
-0.29771
-1.03082
-0.517937
-0.784491
-0.74116
-0.360126
-0.880586
-0.318784
-0.909218
-0.457556
-0.841047
-0.423865
-0.770103
-0.090669
-0.75472
0.0919854
-0.802176
0.233943
-0.90066
0.332491
-0.97822
0.194875
-0.970346
-0.0636821
-0.882455
-0.236071
-0.777913
0.183599
-0.819932
1.26447
-1.02101
2.51134
-1.34382
3.708
-1.81486
4.95662
-2.40521
6.17083
-3.0949
7.42835
-3.82915
8.77419
-4.46424
9.60729
-5.01708
10.0806
-5.35844
9.98231
-5.29346
9.1149
-4.87158
7.85343
-4.39527
5.97492
-4.11256
4.08862
-3.69851
2.2369
-3.33718
0.688814
-3.15991
-0.22989
-3.06908
-0.874158
-3.12404
-1.43858
-3.07019
-2.2102
-2.98645
-2.94992
-3.04333
-3.14132
-3.24975
-2.97113
-3.37468
-3.1223
-3.32023
-3.7036
-3.28642
-4.28917
-3.36216
-4.59894
-3.45364
-4.98093
-3.50189
-5.43418
-3.44915
-5.84229
-3.28917
-6.16614
-3.18008
-6.1157
-2.90331
-5.84608
-2.46696
-5.40017
-2.18612
-4.85486
-2.03295
-4.00715
-1.78083
-3.18421
-1.59879
-2.39356
-1.53505
-1.68129
-1.55916
-1.30656
-1.63044
-1.16954
-1.54935
-1.06355
-1.49451
-0.805863
-1.52886
-0.599727
-1.47311
-0.699701
-1.43004
-0.73488
-1.48978
-0.61676
-1.44037
-0.610561
-1.3178
-0.502023
-1.30283
-0.260109
-1.19297
-0.23519
-1.02924
-0.111334
-1.00956
0.237065
-1.11796
0.415101
-1.27351
0.469061
-1.39045
0.72956
-1.62415
1.21506
-2.03864
1.64293
-2.47129
1.91209
-2.80994
1.81691
-3.02127
1.31853
-3.21424
0.770837
-3.33586
0.25127
-3.45335
0.053167
-3.54881
0.120396
-3.63265
0.215925
-3.71689
0.0644492
-3.68077
-0.40078
-3.59143
-1.12452
-3.37207
-1.93387
-3.04563
-2.38732
-2.6793
-2.45371
-2.40652
-2.25121
-2.20952
-1.83164
-2.03995
-1.36452
-1.96803
-0.866401
-1.86976
-0.282827
-1.74664
0.414304
-1.67133
0.952234
-1.55001
1.19449
-1.30637