/*--------------------------------*- C++ -*----------------------------------*\
| =========                 |                                                 |
| \\      /  F ield         | foam-extend: Open Source CFD                    |
|  \\    /   O peration     | Version:     5.0                                |
|   \\  /    A nd           | Web:         http://www.foam-extend.org         |
|    \\/     M anipulation  |                                                 |
\*---------------------------------------------------------------------------*/
FoamFile
{
    version     2.0;
    format      ascii;
    class       volVectorField;
    location    "0.065";
    object      U;
}
// * * * * * * * * * * * * * * * * * * * * * * * * * * * * * * * * * * * * * //

dimensions      [0 1 -1 0 0 0 0];

internalField   nonuniform List<vector> 
4000
(
(8.85302 -1.41493 0)
(16.8319 -0.540937 0)
(21.6458 0.0493973 0)
(25.559 -0.486335 0)
(32.4782 -0.62175 0)
(35.5935 -0.18596 0)
(37.375 -0.0109261 0)
(31.7605 0.9273 0)
(25.1242 0.911938 0)
(17.6894 0.724339 0)
(18.6155 -0.0980852 0)
(18.2643 -1.03896 0)
(23.4417 -0.186508 0)
(26.8412 0.465558 0)
(21.8543 0.721062 0)
(12.9082 1.45651 0)
(2.08783 2.47423 0)
(-19.8801 2.54881 0)
(-36.2295 2.42279 0)
(-49.7353 1.23092 0)
(-62.9545 2.59371 0)
(-95.6275 3.87781 0)
(-118.537 4.93111 0)
(-175.019 7.30176 0)
(-222.104 6.0047 0)
(-276.746 4.66761 0)
(-308.281 7.20537 0)
(-389.454 7.33076 0)
(-424.173 6.22007 0)
(-478.876 9.21911 0)
(-560.989 8.36985 0)
(-620.471 4.01813 0)
(-638.846 2.99623 0)
(-679.738 2.27831 0)
(-701.98 2.44024 0)
(-711.58 -0.243549 0)
(-682.891 -2.86565 0)
(-671.375 -3.95693 0)
(-633.867 -7.4699 0)
(-552.917 -6.0442 0)
(-514.859 -6.30044 0)
(-440.895 -8.80992 0)
(-393.817 -8.9683 0)
(-333.36 -8.74537 0)
(-240.616 -7.77447 0)
(-198.993 -4.63824 0)
(-116.458 -6.58651 0)
(-85.6604 -3.86033 0)
(-53.3292 -5.46763 0)
(3.11526 -2.68387 0)
(5.5157 0.586278 0)
(8.46857 -3.26968 0)
(35.4733 -2.03473 0)
(22.2176 -0.908637 0)
(48.7985 -0.390661 0)
(33.1278 -0.405869 0)
(53.2297 -0.773981 0)
(39.4422 0.424661 0)
(41.2316 -1.34809 0)
(57.5111 0.385575 0)
(45.5781 0.73811 0)
(53.9118 0.412857 0)
(34.175 1.65586 0)
(38.2236 0.524499 0)
(19.5708 0.581441 0)
(19.9272 0.331238 0)
(5.02408 1.07188 0)
(13.8633 0.758475 0)
(-2.1521 0.262368 0)
(-3.77992 -0.165188 0)
(-1.54161 -0.571888 0)
(4.73025 -0.881345 0)
(14.2616 -1.30923 0)
(27.3213 -2.04297 0)
(43.1793 -1.05284 0)
(51.1484 -0.664184 0)
(57.7779 -0.706551 0)
(59.5237 -0.6777 0)
(62.9144 0.148136 0)
(55.666 0.693725 0)
(60.8747 -0.0793413 0)
(51.2415 -0.0721294 0)
(61.1258 -0.980473 0)
(69.131 -1.18022 0)
(78.1714 -1.91163 0)
(94.0762 -1.22225 0)
(99.5435 -0.488721 0)
(104.477 -1.05465 0)
(112.526 -0.384804 0)
(112.055 0.550318 0)
(110.29 0.724141 0)
(103.952 0.586774 0)
(102.09 0.31478 0)
(101.799 0.573615 0)
(99.2973 0.257429 0)
(96.9275 -0.516687 0)
(96.0021 -0.602021 0)
(99.7678 -0.191619 0)
(96.3677 -0.0608854 0)
(103.108 -1.9507 0)
(22.8816 -6.41402 0)
(45.1322 -3.54685 0)
(62.923 -1.49158 0)
(78.5543 -2.8609 0)
(95.8448 -2.659 0)
(97.8045 -1.06963 0)
(104.551 0.558942 0)
(89.5783 3.57139 0)
(77.2525 3.49371 0)
(60.9329 1.85871 0)
(64.8959 0.253248 0)
(61.0524 -1.60079 0)
(60.829 -1.3411 0)
(77.722 0.0121114 0)
(62.1493 2.85255 0)
(43.8816 5.28184 0)
(28.8619 7.78293 0)
(-7.56428 7.93435 0)
(-26.7899 7.22351 0)
(-57.9244 7.61958 0)
(-103.13 9.36459 0)
(-124.57 12.6912 0)
(-204.514 18.0483 0)
(-269.083 22.3048 0)
(-340.427 21.558 0)
(-419.973 19.2424 0)
(-464.787 22.9519 0)
(-576.292 24.4779 0)
(-637.035 24.1937 0)
(-748.883 29.5948 0)
(-883.65 30.0028 0)
(-969.336 20.8619 0)
(-1003.94 13.2706 0)
(-1057.81 9.9657 0)
(-1086.37 4.53691 0)
(-1030.72 -3.68248 0)
(-1026.76 -11.6758 0)
(-940.013 -15.9258 0)
(-881.479 -20.9691 0)
(-827.138 -25.3185 0)
(-727.122 -24.4784 0)
(-676.916 -22.8861 0)
(-571.028 -28.3044 0)
(-449.356 -31.5093 0)
(-383.114 -28.2624 0)
(-257.647 -29.1359 0)
(-163.36 -24.5794 0)
(-117.277 -16.1313 0)
(-33.0476 -16.3954 0)
(3.03804 -14.1672 0)
(58.3698 -4.50283 0)
(56.2928 -2.56581 0)
(88.8929 -3.45417 0)
(75.4883 -3.80088 0)
(104.103 -2.34836 0)
(86.9738 -0.590729 0)
(113.838 -1.20427 0)
(87.9691 1.1211 0)
(124.591 -2.88199 0)
(100.84 -1.31389 0)
(131.664 1.36762 0)
(100.271 1.06517 0)
(112.29 3.60499 0)
(100.999 5.05986 0)
(64.9248 3.12232 0)
(71.2067 2.55124 0)
(32.8192 3.65779 0)
(46.7952 2.38534 0)
(14.903 2.05671 0)
(9.44971 1.21163 0)
(20.0262 -1.49656 0)
(19.6079 -4.64593 0)
(52.183 -5.81681 0)
(79.2109 -6.78249 0)
(113.888 -5.30385 0)
(131.009 -3.61304 0)
(136.114 -1.6485 0)
(142.463 -0.986652 0)
(157.054 0.352279 0)
(141.878 0.966632 0)
(151.187 0.463794 0)
(135.243 0.284673 0)
(139.933 -3.2602 0)
(170.828 -5.1975 0)
(182.155 -6.16885 0)
(212.431 -4.23827 0)
(229.52 -2.264 0)
(235.576 -3.95269 0)
(250.559 -1.72891 0)
(250.867 0.888386 0)
(253.324 1.22262 0)
(241.787 1.84918 0)
(235.389 0.328912 0)
(238.834 0.482171 0)
(234.063 1.51942 0)
(218.583 1.52044 0)
(199.529 -0.269364 0)
(199.263 2.01911 0)
(166.165 -0.279959 0)
(189.999 -6.16213 0)
(26.7771 -16.1569 0)
(57.9863 -11.0311 0)
(92.0185 -7.56223 0)
(122.323 -8.5115 0)
(141.795 -6.24249 0)
(153.714 -2.24765 0)
(146.406 2.512 0)
(128.988 7.05419 0)
(123.212 6.49431 0)
(111.036 3.3619 0)
(114.539 0.101853 0)
(107.352 -2.36943 0)
(112.433 -2.49581 0)
(126.187 0.278484 0)
(109.918 6.48275 0)
(95.1906 9.37174 0)
(83.8257 13.8282 0)
(56.5639 15.5647 0)
(15.3653 14.582 0)
(-3.06973 15.6366 0)
(-58.4865 19.5684 0)
(-99.3908 27.6908 0)
(-182.698 36.8124 0)
(-250.285 38.4458 0)
(-294.891 38.2555 0)
(-387.873 38.5617 0)
(-478.825 42.8041 0)
(-542.735 45.6485 0)
(-653.969 46.9219 0)
(-737.551 59.2473 0)
(-896.574 58.6669 0)
(-964.728 38.0556 0)
(-1044.02 24.6774 0)
(-1053.19 15.3869 0)
(-1091.13 3.22329 0)
(-1043.72 -10.278 0)
(-1045.1 -23.7722 0)
(-968.895 -33.5493 0)
(-923.365 -37.5677 0)
(-818.34 -42.9835 0)
(-786.389 -41.1451 0)
(-685.324 -44.487 0)
(-600.194 -54.8387 0)
(-527.44 -57.8963 0)
(-389.969 -55.8942 0)
(-273.052 -51.9151 0)
(-217.182 -42.205 0)
(-156.776 -33.1928 0)
(-44.8759 -35.6622 0)
(22.6792 -25.4091 0)
(42.6014 -11.1418 0)
(106.912 -9.87789 0)
(137.451 -6.75142 0)
(137.972 -4.42851 0)
(125.035 -3.49809 0)
(155.497 -2.5068 0)
(159.718 -0.854373 0)
(134.84 -0.878072 0)
(176.897 -4.62281 0)
(145.895 -2.14513 0)
(180.895 1.81168 0)
(148.471 2.98419 0)
(157.792 6.35209 0)
(125.444 8.63033 0)
(144.337 6.63753 0)
(100.123 8.30779 0)
(67.8646 7.33231 0)
(87.3112 4.60647 0)
(58.2179 4.44392 0)
(62.8987 1.76474 0)
(53.4567 -2.14807 0)
(73.3288 -9.81048 0)
(95.5203 -12.862 0)
(117.918 -15.1615 0)
(156.925 -13.8531 0)
(197.433 -8.76807 0)
(190.91 -4.58578 0)
(221.337 -2.50024 0)
(205.712 0.296941 0)
(220.813 2.12239 0)
(204.739 1.84752 0)
(201.048 -0.189497 0)
(219.484 -6.75117 0)
(229.857 -10.7523 0)
(263.995 -12.2716 0)
(269.044 -9.06097 0)
(304.921 -6.38965 0)
(313.927 -6.83403 0)
(312.917 -3.82261 0)
(328.164 0.186323 0)
(330.32 2.25384 0)
(319.851 4.58858 0)
(301.301 1.82904 0)
(305.413 0.966822 0)
(301.547 5.10054 0)
(271.281 6.57533 0)
(241.258 5.40697 0)
(218.311 6.51571 0)
(187.393 0.693849 0)
(209.033 -9.97812 0)
(23.6099 -26.6076 0)
(59.4794 -19.3186 0)
(100.048 -15.6783 0)
(139.465 -16.4896 0)
(171.283 -11.2749 0)
(180.767 -2.33226 0)
(177.013 5.87957 0)
(149.777 10.9122 0)
(151.76 8.33317 0)
(143.405 4.04802 0)
(151.812 0.618466 0)
(137.675 -2.91393 0)
(144.504 -3.9918 0)
(157.909 0.462573 0)
(143.679 9.29875 0)
(143.716 13.044 0)
(120.984 18.4324 0)
(105.264 23.1676 0)
(58.0284 23.8819 0)
(23.3862 25.4186 0)
(-26.6907 30.7047 0)
(-74.5726 44.6253 0)
(-169.08 56.2546 0)
(-234.536 54.6518 0)
(-312.971 55.1565 0)
(-386.336 60.6505 0)
(-491.44 66.1443 0)
(-598.993 68.3892 0)
(-695.417 73.8389 0)
(-833.969 90.8615 0)
(-966.739 84.3174 0)
(-1030.78 55.2315 0)
(-1062.33 36.8457 0)
(-1122.42 22.4225 0)
(-1132.92 2.87533 0)
(-1113.85 -16.6676 0)
(-1054.23 -32.8831 0)
(-1034.96 -45.6341 0)
(-985.314 -56.6487 0)
(-880.616 -62.2697 0)
(-843.217 -58.1297 0)
(-731.646 -63.7467 0)
(-668.64 -75.1621 0)
(-549.524 -82.3786 0)
(-476.147 -83.0845 0)
(-386.44 -73.2211 0)
(-291.483 -62.8903 0)
(-175.56 -54.672 0)
(-122.705 -53.6265 0)
(-65.1683 -41.6351 0)
(27.5823 -26.5382 0)
(100.28 -21.9279 0)
(124.868 -10.0119 0)
(113.453 -5.25619 0)
(157.563 -6.53343 0)
(164.475 -3.93911 0)
(139.916 0.174246 0)
(173.86 -3.33282 0)
(195.488 -5.80453 0)
(166.699 -2.61616 0)
(195.716 -0.140444 0)
(195.149 5.8743 0)
(162.343 9.76008 0)
(186.947 8.14999 0)
(188.1 10.9986 0)
(129.219 17.4987 0)
(100.447 11.35 0)
(117.92 5.56309 0)
(93.828 6.94384 0)
(82.5928 2.56154 0)
(101.227 -4.02046 0)
(100.961 -14.2424 0)
(117.538 -20.0362 0)
(163.676 -23.8581 0)
(186.275 -21.55 0)
(212.965 -13.0582 0)
(215.54 -8.03821 0)
(249.405 -4.888 0)
(241.457 0.82653 0)
(247.557 3.45232 0)
(234.774 1.74728 0)
(257.069 -1.7143 0)
(255.118 -10.1144 0)
(279.649 -17.5041 0)
(295.633 -16.9407 0)
(317.407 -13.2517 0)
(328.619 -11.435 0)
(359.077 -10.3066 0)
(357.481 -5.01342 0)
(366.777 0.494644 0)
(353.689 3.09107 0)
(362.108 7.4374 0)
(338.001 3.76345 0)
(339.252 2.87138 0)
(312.334 9.93358 0)
(284.411 13.9508 0)
(255.919 12.8273 0)
(216.768 18.3635 0)
(125.288 6.79686 0)
(138.559 -12.9066 0)
(21.708 -37.6656 0)
(57.0944 -29.1067 0)
(99.0952 -26.0029 0)
(137.772 -26.0433 0)
(177.232 -17.3267 0)
(194.67 -3.69991 0)
(192.13 9.10515 0)
(173.875 13.6319 0)
(169.667 10.3665 0)
(157.567 5.1732 0)
(161.712 1.668 0)
(147.052 -3.40234 0)
(163.136 -5.74828 0)
(167.996 -0.318298 0)
(172.359 9.29696 0)
(169.084 17.139 0)
(133.534 24.4214 0)
(126.464 31.1301 0)
(67.165 35.1557 0)
(39.1575 36.4407 0)
(-38.2487 44.3905 0)
(-78.0299 61.3473 0)
(-172.794 76.3881 0)
(-240.274 74.5316 0)
(-328.932 76.3583 0)
(-419.018 85.182 0)
(-546.136 92.5336 0)
(-653.851 96.047 0)
(-817.577 110.827 0)
(-1009.29 127.467 0)
(-1121.82 109.483 0)
(-1193.36 66.7593 0)
(-1175.04 44.7612 0)
(-1204.84 28.1148 0)
(-1197.58 0.119495 0)
(-1140.84 -23.5965 0)
(-1131.04 -43.4639 0)
(-1068.23 -58.7967 0)
(-989.671 -73.9377 0)
(-919.525 -76.3084 0)
(-904.392 -75.3714 0)
(-800.428 -89.1447 0)
(-690.277 -99.8241 0)
(-620.782 -105.193 0)
(-505.199 -103.757 0)
(-390.698 -98.3639 0)
(-320.343 -87.405 0)
(-228.14 -74.3539 0)
(-144.529 -68.5686 0)
(-113.267 -58.9766 0)
(-11.3725 -47.7659 0)
(47.1189 -33.3684 0)
(63.0284 -13.3089 0)
(101.171 -9.9045 0)
(99.8605 -11.4775 0)
(110.059 -3.6458 0)
(139.879 -3.25858 0)
(161.126 -9.5907 0)
(151.061 -7.41539 0)
(184.937 -2.52306 0)
(168.108 1.0425 0)
(158.281 5.37455 0)
(193.436 7.82806 0)
(208.17 7.05559 0)
(167.835 17.5692 0)
(140.706 25.7844 0)
(140.374 13.547 0)
(118.031 7.23755 0)
(127.164 9.03563 0)
(107.567 3.2071 0)
(121.566 -5.52913 0)
(133.766 -16.7286 0)
(141.98 -25.0844 0)
(157.66 -32.0198 0)
(195.337 -27.4187 0)
(203.328 -16.0743 0)
(202.451 -12.1667 0)
(221.185 -7.77632 0)
(240.708 0.51613 0)
(225.89 3.27662 0)
(252.704 -1.45951 0)
(261.244 -3.44216 0)
(255.398 -11.9126 0)
(280.295 -23.037 0)
(308.939 -22.299 0)
(311.878 -17.5601 0)
(350.451 -15.4488 0)
(344.572 -14.0444 0)
(371.359 -6.32501 0)
(359.267 0.503209 0)
(375.415 3.8798 0)
(350.76 9.41735 0)
(362.783 6.3943 0)
(331.919 7.12665 0)
(326.059 16.8432 0)
(286.075 20.6824 0)
(257.934 24.42 0)
(162.025 39.3586 0)
(74.0848 18.453 0)
(90.741 -14.7324 0)
(15.8155 -47.7539 0)
(54.384 -37.8119 0)
(97.4646 -35.6389 0)
(130.858 -36.2822 0)
(167.733 -24.9396 0)
(190.785 -6.04133 0)
(198.908 10.8846 0)
(179.355 16.9335 0)
(173.266 12.4542 0)
(161.363 6.85022 0)
(158.529 2.59053 0)
(152.563 -5.03303 0)
(164.88 -7.94377 0)
(179.652 -1.09572 0)
(165.607 9.36673 0)
(171.211 19.7683 0)
(156.773 29.9385 0)
(127.103 40.3633 0)
(73.3012 47.4168 0)
(20.5544 51.3704 0)
(-57.0474 59.7646 0)
(-107.219 78.9053 0)
(-198.083 97.4126 0)
(-278.631 93.0188 0)
(-349.135 98.2377 0)
(-486.882 115.647 0)
(-614.909 127.685 0)
(-803.35 139.21 0)
(-1013.35 161.257 0)
(-1221.46 169.737 0)
(-1313.5 126.329 0)
(-1365.15 68.9875 0)
(-1353.98 40.7649 0)
(-1302.42 20.3289 0)
(-1257.1 -7.3378 0)
(-1231.31 -31.6856 0)
(-1171.95 -53.0208 0)
(-1137.97 -73.3738 0)
(-1081.17 -89.2464 0)
(-1043.65 -90.0497 0)
(-957.567 -91.4767 0)
(-890.712 -108.516 0)
(-822.842 -125.333 0)
(-693.228 -132.283 0)
(-610.969 -129.348 0)
(-501.887 -122.902 0)
(-370.068 -111.232 0)
(-307.78 -94.3548 0)
(-208.262 -84.8644 0)
(-171.798 -76.9234 0)
(-77.5827 -63.3948 0)
(-49.4912 -46.0702 0)
(29.8498 -23.4505 0)
(64.2725 -16.2088 0)
(60.9231 -14.8291 0)
(111.997 -9.17826 0)
(130.74 -9.12625 0)
(113.149 -8.89809 0)
(149.532 -10.6387 0)
(135.277 -5.45833 0)
(173.638 1.79364 0)
(156.118 2.25785 0)
(193.183 4.206 0)
(173.681 11.2207 0)
(149.53 25.3382 0)
(138.213 29.011 0)
(133.826 15.5252 0)
(139.981 7.90998 0)
(132.013 8.26387 0)
(138.78 3.90972 0)
(127.223 -7.26268 0)
(129.899 -18.7828 0)
(150.825 -29.0346 0)
(170.048 -35.8717 0)
(158.061 -29.9239 0)
(176.968 -17.7773 0)
(163.459 -15.2564 0)
(194.741 -12.4323 0)
(191.092 -0.437587 0)
(211.907 1.70394 0)
(216.223 -5.40132 0)
(219.164 -6.01702 0)
(254.344 -14.2653 0)
(247.843 -27.5057 0)
(257.569 -28.1605 0)
(302.239 -24.3835 0)
(333.658 -18.1944 0)
(321.506 -15.0852 0)
(320.69 -9.90634 0)
(358.494 -1.38732 0)
(362.042 5.56081 0)
(335.874 10.4393 0)
(355.283 8.67148 0)
(329.676 13.1392 0)
(294.712 23.5124 0)
(276.903 30.6925 0)
(197.088 42.0226 0)
(113.259 63.3868 0)
(18.2183 24.5221 0)
(66.0143 -19.9209 0)
(3.83319 -56.928 0)
(53.0956 -46.7119 0)
(95.2411 -44.6891 0)
(120.19 -44.8706 0)
(147.301 -31.9716 0)
(172.476 -10.7643 0)
(186.787 12.2286 0)
(176.786 20.4461 0)
(163.457 15.1803 0)
(153.293 9.13914 0)
(145.276 3.48981 0)
(150.22 -6.33179 0)
(150.832 -11.2612 0)
(174.43 -2.21975 0)
(160.816 10.0955 0)
(168.155 21.9788 0)
(131.415 35.8024 0)
(113.1 49.3316 0)
(65.8243 61.2998 0)
(-2.32374 68.7907 0)
(-77.5178 76.137 0)
(-137.653 97.3528 0)
(-236.55 117.81 0)
(-325.617 114.361 0)
(-423.965 124.537 0)
(-566.148 150.306 0)
(-763.203 171.526 0)
(-961.615 194.068 0)
(-1242.87 219.356 0)
(-1389.04 199.585 0)
(-1414.9 137.811 0)
(-1432.35 74.7523 0)
(-1429.74 33.7623 0)
(-1373.78 6.34536 0)
(-1351.6 -21.5421 0)
(-1271.65 -45.7562 0)
(-1241.05 -69.4902 0)
(-1151.48 -89.7421 0)
(-1092.59 -100.716 0)
(-1072.54 -101.366 0)
(-1017.95 -111.402 0)
(-906.192 -129.925 0)
(-843.407 -144.798 0)
(-768.178 -157.629 0)
(-647.242 -159.185 0)
(-514.892 -150.772 0)
(-445.398 -134.428 0)
(-371.052 -113.395 0)
(-270.794 -102.136 0)
(-229.548 -94.0117 0)
(-140.796 -78.1029 0)
(-109.545 -59.6911 0)
(-38.9773 -35.9348 0)
(-13.8192 -21.8986 0)
(33.5015 -22.0112 0)
(45.9192 -17.3489 0)
(84.4233 -12.064 0)
(75.0704 -10.8783 0)
(114.025 -14.0049 0)
(98.094 -9.47543 0)
(150.371 -3.80737 0)
(165.277 -0.335167 0)
(156.633 3.24247 0)
(172.517 15.3832 0)
(147.671 26.9405 0)
(171.632 28.25 0)
(172.226 18.0007 0)
(138.089 9.1939 0)
(147.742 8.33306 0)
(131.981 4.68917 0)
(148.262 -6.81408 0)
(145.692 -21.0184 0)
(130.509 -31.8472 0)
(144.646 -36.5579 0)
(133.241 -28.2407 0)
(111.591 -17.5859 0)
(118.83 -15.7798 0)
(108.975 -16.5113 0)
(151.727 -5.05939 0)
(164.578 -1.03422 0)
(176.857 -6.80363 0)
(166.263 -10.1372 0)
(208.295 -18.6576 0)
(211.128 -29.0752 0)
(216.883 -31.959 0)
(224.517 -32.5552 0)
(264.235 -22.9619 0)
(287.685 -15.3956 0)
(269.27 -12.7407 0)
(312.377 -5.24942 0)
(306.84 4.9355 0)
(331.023 9.93779 0)
(324.888 11.337 0)
(283.691 19.8128 0)
(274.157 30.9717 0)
(218.887 45.4154 0)
(132.512 63.9316 0)
(46.4966 85.0317 0)
(-21.4515 27.2965 0)
(24.3655 -24.3794 0)
(-6.38712 -64.5101 0)
(46.7248 -55.7452 0)
(87.741 -52.8886 0)
(101.996 -51.5925 0)
(124.429 -37.9838 0)
(137.451 -15.7119 0)
(157.694 8.92611 0)
(158.532 22.0122 0)
(148.5 18.5112 0)
(134.692 11.4324 0)
(137.475 3.48502 0)
(135.267 -6.94292 0)
(135.633 -13.13 0)
(159.17 -5.56732 0)
(163.194 11.3523 0)
(137.394 26.3661 0)
(125.795 42.1799 0)
(89.4566 59.3438 0)
(39.9307 75.0582 0)
(-18.8269 85.8234 0)
(-96.3603 95.5523 0)
(-194.761 119.624 0)
(-288.208 141.474 0)
(-392.395 142.673 0)
(-567.231 161.514 0)
(-761.251 198.995 0)
(-961.675 226.052 0)
(-1165.89 253.662 0)
(-1374.04 261.837 0)
(-1425.76 215.15 0)
(-1489.19 143.213 0)
(-1483.38 71.1017 0)
(-1442.79 25.1821 0)
(-1385.6 -3.66377 0)
(-1332.06 -32.2882 0)
(-1277.93 -55.0271 0)
(-1224.36 -83.6043 0)
(-1160.42 -103.687 0)
(-1141.58 -110.975 0)
(-1090.41 -117.137 0)
(-983.198 -130.337 0)
(-931.789 -150.484 0)
(-824.196 -167.957 0)
(-739.272 -179.066 0)
(-685.861 -182.189 0)
(-601.389 -174.8 0)
(-521.47 -156.372 0)
(-414.858 -135.261 0)
(-308.02 -120.268 0)
(-270.409 -108.145 0)
(-216.311 -92.4969 0)
(-145.885 -72.4291 0)
(-115.434 -48.4557 0)
(-41.1008 -33.0442 0)
(-37.9655 -28.6411 0)
(-19.8618 -22.4097 0)
(6.73375 -16.2566 0)
(54.9812 -16.8907 0)
(45.7798 -16.0725 0)
(50.733 -14.6653 0)
(107.55 -11.0858 0)
(107.581 -4.69225 0)
(143.664 3.33685 0)
(135.111 14.5913 0)
(156.516 25.73 0)
(148.802 25.4463 0)
(167.534 20.6381 0)
(137.818 14.0622 0)
(128.6 8.70898 0)
(120.934 3.74011 0)
(145.431 -8.01123 0)
(123.57 -18.5183 0)
(109.784 -30.8444 0)
(92.4308 -33.318 0)
(60.4514 -23.4981 0)
(57.4873 -15.2505 0)
(42.2834 -16.3634 0)
(54.0856 -19.4497 0)
(57.027 -10.6158 0)
(102.99 -5.85396 0)
(113.821 -7.88284 0)
(99.7251 -13.1621 0)
(135.67 -21.8204 0)
(114.652 -28.5076 0)
(120.412 -35.9279 0)
(161.141 -38.522 0)
(168.031 -29.2277 0)
(214.202 -18.7235 0)
(203.49 -17.0647 0)
(246.131 -12.365 0)
(274.978 1.35234 0)
(282.953 10.1409 0)
(259.398 15.8826 0)
(250.526 27.4151 0)
(198.192 42.91 0)
(144.876 62.5688 0)
(72.3966 85.2619 0)
(-13.8665 100.927 0)
(-43.1137 29.6151 0)
(-35.2531 -24.9882 0)
(-12.3302 -70.6234 0)
(37.6131 -63.1476 0)
(74.2341 -59.9661 0)
(80.6728 -55.5751 0)
(93.5591 -41.2023 0)
(104.248 -18.8012 0)
(111.115 7.29657 0)
(126.032 21.9725 0)
(123.393 20.6996 0)
(118.979 13.3554 0)
(110.549 3.06847 0)
(124.259 -8.94997 0)
(132.28 -14.9119 0)
(125.123 -7.29468 0)
(137.555 12.1043 0)
(125.662 32.6555 0)
(79.4853 50.8344 0)
(58.3937 69.3901 0)
(0.465692 88.6366 0)
(-60.4327 104.031 0)
(-166.957 117.131 0)
(-243.086 143.448 0)
(-393.504 170.706 0)
(-532.632 183.125 0)
(-735.229 213.143 0)
(-941.724 251.451 0)
(-1148.69 276.892 0)
(-1340.07 299.633 0)
(-1457.84 288.28 0)
(-1479.07 230.547 0)
(-1485.31 148.081 0)
(-1459.29 64.7167 0)
(-1433.33 11.4705 0)
(-1353.99 -19.2139 0)
(-1345.46 -46.1053 0)
(-1245.52 -74.9509 0)
(-1185.64 -95.9921 0)
(-1162.48 -111.003 0)
(-1130.09 -122.011 0)
(-1044.79 -134.583 0)
(-998.447 -150.054 0)
(-897.289 -170.288 0)
(-816.996 -187.743 0)
(-779.259 -195.614 0)
(-708.124 -201.081 0)
(-590.378 -196.251 0)
(-530.04 -180.218 0)
(-406.559 -158.945 0)
(-353.735 -139.866 0)
(-269.349 -120.171 0)
(-233.302 -105.732 0)
(-172.731 -84.3852 0)
(-151.989 -60.1086 0)
(-73.8064 -43.2017 0)
(-81.2035 -31.9962 0)
(-60.4715 -27.6911 0)
(-10.3439 -27.2138 0)
(-2.68799 -20.9054 0)
(32.7186 -19.7012 0)
(53.237 -19.8787 0)
(62.2985 -15.7201 0)
(63.8451 -9.85279 0)
(109.371 -0.77873 0)
(102.058 10.9845 0)
(134.319 21.3204 0)
(151.421 24.2666 0)
(137.425 23.3048 0)
(145.623 17.8084 0)
(114.664 11.3582 0)
(109.211 2.66771 0)
(127.95 -6.65597 0)
(97.624 -12.3803 0)
(70.9005 -24.1264 0)
(34.4316 -27.5167 0)
(15.7516 -17.8571 0)
(-16.3352 -13.4969 0)
(-14.5465 -15.5204 0)
(-32.9978 -20.7948 0)
(-8.68243 -17.7619 0)
(29.0627 -10.5717 0)
(12.7827 -8.61833 0)
(35.5673 -14.6141 0)
(22.6212 -23.768 0)
(44.6564 -30.2851 0)
(51.6729 -38.3834 0)
(59.1986 -43.1963 0)
(79.7625 -37.0385 0)
(129.683 -25.0916 0)
(137.782 -22.6751 0)
(176.886 -19.6849 0)
(212.069 -1.96953 0)
(201.712 10.3252 0)
(211.008 21.0456 0)
(167.527 36.7001 0)
(130.765 55.7207 0)
(87.7631 76.848 0)
(31.1702 104.31 0)
(-64.7815 113.372 0)
(-56.8487 31.8176 0)
(-62.1798 -23.6788 0)
(-12.647 -75.9523 0)
(29.6225 -68.7623 0)
(57.7034 -65.1454 0)
(57.9784 -58.0447 0)
(59.6119 -43.0807 0)
(61.6153 -21.2221 0)
(75.2437 4.80758 0)
(80.3931 21.02 0)
(91.4626 20.8177 0)
(85.5001 13.6313 0)
(97.8379 1.61084 0)
(92.4737 -11.301 0)
(104.135 -15.2589 0)
(102.54 -6.70558 0)
(86.2386 14.2664 0)
(84.6301 38.0417 0)
(52.1666 60.4282 0)
(-0.89032 81.5281 0)
(-53.3936 104.76 0)
(-122.583 125.757 0)
(-230.536 143.174 0)
(-347.873 174.692 0)
(-505.33 213.244 0)
(-698.769 230.678 0)
(-875.091 260.45 0)
(-1107.57 302.62 0)
(-1286.33 325.653 0)
(-1446.73 333.252 0)
(-1524.69 299.566 0)
(-1510.86 227.484 0)
(-1472.45 137.67 0)
(-1420.71 54.0502 0)
(-1380.68 0.0972843 0)
(-1328.48 -27.6714 0)
(-1299.19 -59.8841 0)
(-1229.42 -91.1271 0)
(-1184.81 -109 0)
(-1137.03 -122.985 0)
(-1077.13 -135.697 0)
(-1034.31 -151.113 0)
(-967.2 -168.43 0)
(-888.118 -189.599 0)
(-853.648 -202.569 0)
(-795.579 -212.847 0)
(-680.055 -221.912 0)
(-623.525 -217.823 0)
(-517.921 -204.147 0)
(-450.27 -180.32 0)
(-342.171 -158.834 0)
(-271.389 -136.994 0)
(-209.033 -115.968 0)
(-201.317 -93.529 0)
(-140.423 -71.7229 0)
(-95.1813 -51.5117 0)
(-100.191 -33.5471 0)
(-61.1552 -35.0792 0)
(-59.4103 -32.456 0)
(-18.0737 -28.1662 0)
(-23.1158 -24.0482 0)
(16.4811 -24.3351 0)
(11.7139 -19.0651 0)
(45.7682 -14.697 0)
(51.9194 -5.69533 0)
(79.73 8.47112 0)
(86.0719 15.6693 0)
(119.057 23.255 0)
(106.875 23.3497 0)
(106.839 19.8215 0)
(100.04 13.6059 0)
(110.992 2.12902 0)
(99.4357 -3.6759 0)
(72.3275 -5.7722 0)
(58.6933 -15.4494 0)
(14.7873 -17.8674 0)
(-44.331 -9.25006 0)
(-62.5497 -7.86342 0)
(-97.8017 -12.7765 0)
(-95.8758 -21.08 0)
(-108.887 -21.1768 0)
(-73.045 -13.8897 0)
(-88.5288 -11.3862 0)
(-66.2951 -14.7002 0)
(-86.5282 -23.8221 0)
(-64.5956 -33.6198 0)
(-67.0597 -42.3399 0)
(-22.9135 -48.6612 0)
(7.08096 -43.253 0)
(25.7573 -33.0474 0)
(72.0506 -30.1469 0)
(86.8664 -26.307 0)
(108.369 -5.53404 0)
(114.836 9.71068 0)
(128.747 23.5246 0)
(90.3532 44.5902 0)
(82.6542 64.0209 0)
(53.6852 89.4945 0)
(-27.0875 122.289 0)
(-89.8283 121.224 0)
(-70.0175 31.0888 0)
(-76.5135 -22.9346 0)
(-19.9982 -80.5092 0)
(24.1492 -71.7183 0)
(36.538 -68.5568 0)
(27.9251 -58.1457 0)
(22.0076 -42.6489 0)
(21.168 -22.5132 0)
(30.5034 1.8309 0)
(51.5441 18.853 0)
(50.5541 19.7295 0)
(66.4283 12.2459 0)
(67.2655 0.847145 0)
(67.7864 -11.082 0)
(55.2484 -15.1879 0)
(59.2428 -4.80213 0)
(44.9148 17.8702 0)
(26.509 44.3823 0)
(-3.26217 69.54 0)
(-35.6708 94.8578 0)
(-114.781 121.198 0)
(-194.779 145.818 0)
(-289.848 171.304 0)
(-453.067 213.397 0)
(-623.549 257.24 0)
(-827.472 280.848 0)
(-1034.42 315.903 0)
(-1224.66 349.418 0)
(-1374.72 365.845 0)
(-1516.83 358.711 0)
(-1516.97 298.634 0)
(-1458.34 212.839 0)
(-1385.14 123.405 0)
(-1342.17 40.2291 0)
(-1296.79 -12.1826 0)
(-1270.82 -40.0554 0)
(-1191.28 -73.0178 0)
(-1174.71 -102.183 0)
(-1113.2 -120.11 0)
(-1094.69 -134.746 0)
(-1042.65 -151.064 0)
(-979.879 -164.827 0)
(-943.561 -181.022 0)
(-878.64 -203.871 0)
(-829.76 -219.506 0)
(-730.644 -231.088 0)
(-698.018 -242.145 0)
(-597.28 -236.41 0)
(-550.141 -225.854 0)
(-441.916 -203.343 0)
(-346.804 -179.063 0)
(-320.907 -152.666 0)
(-231.252 -126.41 0)
(-224.532 -102.165 0)
(-157.424 -81.5649 0)
(-151.042 -56.6585 0)
(-134.4 -39.3095 0)
(-84.7932 -39.451 0)
(-90.61 -37.2084 0)
(-78.1591 -30.5799 0)
(-43.8612 -29.9817 0)
(-46.8737 -27.685 0)
(-18.5946 -22.4496 0)
(-14.4423 -20.847 0)
(20.2929 -9.30448 0)
(25.396 2.96508 0)
(58.135 9.99398 0)
(64.3371 20.2928 0)
(90.9026 23.6052 0)
(95.7546 20.2847 0)
(95.9394 12.8498 0)
(82.1094 3.59117 0)
(84.0683 1.21037 0)
(39.4527 0.916076 0)
(30.3307 -6.82615 0)
(-45.1507 -5.10596 0)
(-79.3602 2.73365 0)
(-144.509 0.527461 0)
(-159.277 -8.16352 0)
(-195.092 -18.9431 0)
(-180.325 -20.9318 0)
(-192.766 -16.0313 0)
(-173.887 -12.5054 0)
(-202.799 -13.472 0)
(-182.73 -23.8855 0)
(-204.713 -36.4071 0)
(-165.741 -48.2684 0)
(-154.667 -55.916 0)
(-123.847 -50.9273 0)
(-85.5025 -43.1207 0)
(-23.8247 -38.5078 0)
(-15.1368 -30.8895 0)
(8.58858 -11.145 0)
(43.1879 7.20786 0)
(23.9884 26.0943 0)
(25.7013 48.5911 0)
(12.5536 69.2294 0)
(-16.041 101.019 0)
(-62.9539 137.224 0)
(-117.769 125.082 0)
(-61.3468 27.5492 0)
(-108.477 -14.883 0)
(-31.6211 -83.4857 0)
(17.4193 -72.0576 0)
(16.1667 -69.2087 0)
(-1.75609 -56.2805 0)
(-17.745 -40.6659 0)
(-22.1874 -24.0037 0)
(-15.5115 -2.21021 0)
(13.4008 15.4463 0)
(23.5402 17.104 0)
(37.3388 9.47526 0)
(40.744 -0.0270146 0)
(30.9088 -8.81948 0)
(12.2906 -12.3917 0)
(1.78055 -4.16675 0)
(6.17386 20.5381 0)
(-11.9784 49.7523 0)
(-39.7835 78.9411 0)
(-94.8283 109.466 0)
(-161.373 140.379 0)
(-246.598 172.513 0)
(-365.232 206.261 0)
(-542.574 258.502 0)
(-741.134 309.13 0)
(-906.83 330.348 0)
(-1109.34 361.343 0)
(-1282.9 389.474 0)
(-1423.78 397.221 0)
(-1480.8 366.974 0)
(-1433.83 282.79 0)
(-1348.85 196.709 0)
(-1263.73 108.131 0)
(-1202.2 27.7473 0)
(-1183.18 -18.1208 0)
(-1154.57 -51.6507 0)
(-1096.69 -83.3912 0)
(-1062.66 -110.299 0)
(-1027.69 -127.135 0)
(-990.821 -143.19 0)
(-952.848 -160.454 0)
(-950.165 -176.452 0)
(-889.807 -193.717 0)
(-855.636 -214.069 0)
(-826.456 -235.222 0)
(-745.896 -249.823 0)
(-710.35 -258.638 0)
(-615.07 -254.602 0)
(-575.54 -244.062 0)
(-469.14 -225.73 0)
(-412.362 -193.408 0)
(-373.515 -167.315 0)
(-270.529 -139.903 0)
(-250.615 -112.713 0)
(-181.48 -90.0815 0)
(-183.066 -61.9334 0)
(-142.249 -46.4922 0)
(-135.874 -44.4971 0)
(-94.6963 -42.2314 0)
(-72.878 -34.3414 0)
(-93.3031 -32.3618 0)
(-67.0264 -30.3539 0)
(-81.0561 -25.7573 0)
(-44.4281 -25.8626 0)
(-47.6048 -13.8974 0)
(-4.51368 -1.98672 0)
(-8.48525 4.14254 0)
(32.5656 14.1997 0)
(59.8134 20.3687 0)
(51.5731 19.4553 0)
(46.1033 12.5876 0)
(59.8668 5.31066 0)
(33.7728 7.47 0)
(21.3554 6.67956 0)
(-13.3567 3.99519 0)
(-96.8837 12.3777 0)
(-164.91 16.5901 0)
(-207.313 11.7741 0)
(-259.193 -2.21245 0)
(-267.153 -15.5042 0)
(-289.826 -20.8919 0)
(-277.324 -14.9944 0)
(-305.393 -9.51999 0)
(-327.16 -12.1037 0)
(-305.824 -23.6877 0)
(-327.19 -37.6087 0)
(-316.45 -52.919 0)
(-284.041 -63.6414 0)
(-239.361 -60.8429 0)
(-171.416 -55.8418 0)
(-141.372 -46.9397 0)
(-120.803 -35.8302 0)
(-86.6769 -18.0437 0)
(-47.3498 5.08362 0)
(-71.5719 27.5377 0)
(-65.5551 51.2578 0)
(-89.6907 73.8134 0)
(-86.3693 107.427 0)
(-116.273 145.637 0)
(-112.582 121.164 0)
(-67.9324 25.7893 0)
(-132.129 -5.43956 0)
(-38.0528 -84.4819 0)
(7.3933 -71.2965 0)
(-3.36006 -66.9143 0)
(-31.8973 -51.6743 0)
(-58.5545 -36.9789 0)
(-68.3424 -24.3286 0)
(-55.4776 -6.30397 0)
(-30.3645 11.166 0)
(-12.4852 13.3018 0)
(3.86853 7.5656 0)
(-0.74071 2.15489 0)
(-19.6829 -4.45726 0)
(-34.273 -8.30138 0)
(-47.6578 -2.81235 0)
(-45.2753 20.737 0)
(-36.2557 53.1498 0)
(-66.0237 90.7143 0)
(-131.151 126.957 0)
(-202.231 161.588 0)
(-311.962 198.593 0)
(-430.839 241.302 0)
(-605.627 299.538 0)
(-786.876 349.898 0)
(-959.624 377.053 0)
(-1139.92 405.173 0)
(-1296.22 425.553 0)
(-1384.9 420.983 0)
(-1397.05 364.098 0)
(-1315.7 265.61 0)
(-1221.15 175.052 0)
(-1134.5 91.4563 0)
(-1090.97 17.5357 0)
(-1058.67 -24.1362 0)
(-1040.58 -58.1066 0)
(-1023.85 -93.3834 0)
(-960.895 -120.848 0)
(-927.954 -136.657 0)
(-907.12 -150.646 0)
(-868.563 -164.313 0)
(-871.479 -178.91 0)
(-856.837 -203.369 0)
(-795.875 -224.454 0)
(-765.207 -245.361 0)
(-750.882 -260.847 0)
(-691.424 -270.843 0)
(-661.502 -271.896 0)
(-577.309 -263.8 0)
(-517.802 -243.09 0)
(-465.472 -205.887 0)
(-381.464 -186.307 0)
(-299.348 -157.268 0)
(-247.048 -123.266 0)
(-230.911 -96.6748 0)
(-192.898 -66.2726 0)
(-188.718 -52.6655 0)
(-140.569 -50.814 0)
(-150.219 -45.1449 0)
(-149.218 -35.9291 0)
(-132.011 -32.5783 0)
(-146.978 -31.3433 0)
(-113.012 -29.3943 0)
(-115.541 -29.7456 0)
(-109.78 -18.1144 0)
(-59.141 -6.1419 0)
(-70.7924 -2.12559 0)
(-17.5412 6.28532 0)
(-10.8374 18.2145 0)
(10.134 19.0835 0)
(14.6751 12.0649 0)
(-2.25668 7.54087 0)
(-1.78845 11.6802 0)
(-25.7823 15.5477 0)
(-108.458 19.1391 0)
(-157.522 28.9214 0)
(-232.564 33.0362 0)
(-297.66 23.7496 0)
(-327.004 5.06292 0)
(-366.218 -12.1288 0)
(-365.938 -15.2842 0)
(-394.175 -11.4842 0)
(-412.037 -6.20861 0)
(-408.902 -10.8649 0)
(-425.708 -21.7778 0)
(-440.986 -37.3264 0)
(-424.617 -57.8495 0)
(-389.933 -75.2703 0)
(-313.106 -74.4972 0)
(-284.909 -67.043 0)
(-250.183 -56.2536 0)
(-192.386 -42.366 0)
(-188.06 -25.7013 0)
(-144.546 1.1628 0)
(-157.316 29.1773 0)
(-174.838 52.5495 0)
(-160.062 74.9999 0)
(-166.212 107.776 0)
(-147.845 142.836 0)
(-91.1318 110.835 0)
(-62.814 32.4094 0)
(-124.502 5.21943 0)
(-42.8356 -83.1454 0)
(-5.7562 -68.4685 0)
(-20.2042 -62.4403 0)
(-65.5834 -44.0787 0)
(-97.2663 -31.731 0)
(-108.377 -24.8818 0)
(-96.1038 -10.815 0)
(-67.2327 6.26585 0)
(-51.7323 9.19336 0)
(-40.4425 6.57966 0)
(-58.1975 5.14365 0)
(-71.1716 0.494934 0)
(-93.1566 -5.50439 0)
(-87.8889 -3.66006 0)
(-86.1032 18.7749 0)
(-73.0825 56.3186 0)
(-111.067 101.18 0)
(-150.521 143 0)
(-247.969 185.451 0)
(-357.907 230.312 0)
(-502.7 285.918 0)
(-675.205 347.566 0)
(-823.763 393.554 0)
(-977.847 419.556 0)
(-1153.54 443.239 0)
(-1242.92 447.136 0)
(-1285.64 426.152 0)
(-1250.8 351.905 0)
(-1170.05 242.591 0)
(-1102.77 155.636 0)
(-1037.96 77.7087 0)
(-974.611 9.27235 0)
(-994.39 -31.3108 0)
(-929.24 -64.4554 0)
(-917.452 -102.426 0)
(-883.686 -131.685 0)
(-846.656 -146.882 0)
(-796.873 -158.16 0)
(-811.074 -169.034 0)
(-791.936 -182.192 0)
(-789.666 -208.565 0)
(-756.897 -231.086 0)
(-763.031 -250.446 0)
(-721.743 -268.916 0)
(-711.656 -281.306 0)
(-649.512 -283.341 0)
(-615.263 -280.363 0)
(-525.975 -256.332 0)
(-490.586 -224.252 0)
(-399.926 -204.542 0)
(-357.205 -171.755 0)
(-282.278 -132.491 0)
(-278.8 -101.225 0)
(-256.102 -72.8526 0)
(-215.241 -61.4268 0)
(-167.691 -55.3071 0)
(-192.143 -44.4389 0)
(-167.306 -36.0353 0)
(-181.902 -30.2787 0)
(-204.108 -32.9198 0)
(-166.088 -32.9244 0)
(-179.218 -30.4523 0)
(-145.446 -24.3494 0)
(-134.622 -11.4331 0)
(-108.381 -8.03481 0)
(-104.581 1.36119 0)
(-66.253 14.5008 0)
(-61.5694 16.9951 0)
(-65.2191 11.7884 0)
(-52.987 8.71104 0)
(-84.4972 19.1302 0)
(-129.804 28.0109 0)
(-176.446 35.7249 0)
(-262.183 45.3038 0)
(-316.794 48.9828 0)
(-359.797 36.9813 0)
(-430.47 14.1356 0)
(-442.6 -6.01567 0)
(-483.854 -10.2007 0)
(-481.235 -4.84479 0)
(-527.832 -3.29616 0)
(-526.844 -6.91951 0)
(-553.044 -19.1385 0)
(-540.077 -42.2377 0)
(-494.852 -68.072 0)
(-447.353 -87.1012 0)
(-417.679 -84.7025 0)
(-380.509 -77.3902 0)
(-313.737 -67.3368 0)
(-291.241 -49.8546 0)
(-279.862 -30.583 0)
(-251.675 -2.5984 0)
(-227.449 29.6134 0)
(-238.349 54.1066 0)