/*--------------------------------*- C++ -*----------------------------------*\
| =========                 |                                                 |
| \\      /  F ield         | foam-extend: Open Source CFD                    |
|  \\    /   O peration     | Version:     5.0                                |
|   \\  /    A nd           | Web:         http://www.foam-extend.org         |
|    \\/     M anipulation  |                                                 |
\*---------------------------------------------------------------------------*/
FoamFile
{
    version     2.0;
    format      ascii;
    class       volVectorField;
    location    "0.005";
    object      bodyForce;
}
// * * * * * * * * * * * * * * * * * * * * * * * * * * * * * * * * * * * * * //

dimensions      [0 1 -2 0 0 0 0];

internalField   nonuniform List<vector> 
4000
(
(-136.142 0 0)
(-185.914 0 0)
(-153.173 0 0)
(-148.865 0 0)
(-147.502 0 0)
(-146.774 0 0)
(-146.388 0 0)
(-146.183 0 0)
(-146.074 0 0)
(-146.015 0 0)
(-145.983 0 0)
(-145.966 0 0)
(-145.956 0 0)
(-145.951 0 0)
(-145.949 0 0)
(-145.947 0 0)
(-145.946 0 0)
(-145.946 0 0)
(-145.945 0 0)
(-145.945 0 0)
(-145.945 0 0)
(-145.945 0 0)
(-145.945 0 0)
(-145.945 0 0)
(-145.945 0 0)
(-145.945 0 0)
(-145.945 0 0)
(-145.945 0 0)
(-145.945 0 0)
(-145.945 0 0)
(-145.945 0 0)
(-145.945 0 0)
(-145.945 0 0)
(-145.945 0 0)
(-145.945 0 0)
(-145.945 0 0)
(-145.945 0 0)
(-145.945 0 0)
(-145.945 0 0)
(-145.945 0 0)
(-145.945 0 0)
(-145.945 0 0)
(-145.945 0 0)
(-145.945 0 0)
(-145.945 0 0)
(-145.945 0 0)
(-145.945 0 0)
(-145.945 0 0)
(-145.945 0 0)
(-145.945 0 0)
(-145.945 0 0)
(-145.945 0 0)
(-145.945 0 0)
(-145.945 0 0)
(-145.945 0 0)
(-145.945 0 0)
(-145.945 0 0)
(-145.945 0 0)
(-145.945 0 0)
(-145.945 0 0)
(-145.945 0 0)
(-145.945 0 0)
(-145.945 0 0)
(-145.945 0 0)
(-145.945 0 0)
(-145.945 0 0)
(-145.945 0 0)
(-145.945 0 0)
(-145.945 0 0)
(-145.945 0 0)
(-145.945 0 0)
(-145.945 0 0)
(-145.945 0 0)
(-145.945 0 0)
(-145.945 0 0)
(-145.945 0 0)
(-145.945 0 0)
(-145.945 0 0)
(-145.945 0 0)
(-145.945 0 0)
(-145.945 0 0)
(-145.945 0 0)
(-145.945 0 0)
(-145.945 0 0)
(-145.945 0 0)
(-145.945 0 0)
(-145.945 0 0)
(-145.945 0 0)
(-145.945 0 0)
(-145.945 0 0)
(-145.945 0 0)
(-145.945 0 0)
(-145.945 0 0)
(-145.945 0 0)
(-145.945 0 0)
(-145.945 0 0)
(-145.945 0 0)
(-145.957 0 0)
(-145.914 0 0)
(-145.832 0 0)
(-250.469 0 0)
(-354.569 0 0)
(-306.182 0 0)
(-297.716 0 0)
(-294.565 0 0)
(-292.971 0 0)
(-292.15 0 0)
(-291.721 0 0)
(-291.494 0 0)
(-291.372 0 0)
(-291.307 0 0)
(-291.272 0 0)
(-291.253 0 0)
(-291.243 0 0)
(-291.237 0 0)
(-291.234 0 0)
(-291.232 0 0)
(-291.231 0 0)
(-291.231 0 0)
(-291.231 0 0)
(-291.231 0 0)
(-291.23 0 0)
(-291.23 0 0)
(-291.23 0 0)
(-291.23 0 0)
(-291.23 0 0)
(-291.23 0 0)
(-291.23 0 0)
(-291.23 0 0)
(-291.23 0 0)
(-291.23 0 0)
(-291.23 0 0)
(-291.23 0 0)
(-291.23 0 0)
(-291.23 0 0)
(-291.23 0 0)
(-291.23 0 0)
(-291.23 0 0)
(-291.23 0 0)
(-291.23 0 0)
(-291.23 0 0)
(-291.23 0 0)
(-291.23 0 0)
(-291.23 0 0)
(-291.23 0 0)
(-291.23 0 0)
(-291.23 0 0)
(-291.23 0 0)
(-291.23 0 0)
(-291.23 0 0)
(-291.23 0 0)
(-291.23 0 0)
(-291.23 0 0)
(-291.23 0 0)
(-291.23 0 0)
(-291.23 0 0)
(-291.23 0 0)
(-291.23 0 0)
(-291.23 0 0)
(-291.23 0 0)
(-291.23 0 0)
(-291.23 0 0)
(-291.23 0 0)
(-291.23 0 0)
(-291.23 0 0)
(-291.23 0 0)
(-291.23 0 0)
(-291.23 0 0)
(-291.23 0 0)
(-291.23 0 0)
(-291.23 0 0)
(-291.23 0 0)
(-291.23 0 0)
(-291.23 0 0)
(-291.23 0 0)
(-291.23 0 0)
(-291.23 0 0)
(-291.23 0 0)
(-291.23 0 0)
(-291.23 0 0)
(-291.23 0 0)
(-291.23 0 0)
(-291.23 0 0)
(-291.23 0 0)
(-291.23 0 0)
(-291.23 0 0)
(-291.23 0 0)
(-291.23 0 0)
(-291.23 0 0)
(-291.23 0 0)
(-291.23 0 0)
(-291.23 0 0)
(-291.23 0 0)
(-291.23 0 0)
(-291.23 0 0)
(-291.229 0 0)
(-291.229 0 0)
(-291.247 0 0)
(-291.15 0 0)
(-291.192 0 0)
(-290.969 0 0)
(-419.092 0 0)
(-375.172 0 0)
(-367.425 0 0)
(-364.192 0 0)
(-362.497 0 0)
(-361.616 0 0)
(-361.154 0 0)
(-360.909 0 0)
(-360.778 0 0)
(-360.708 0 0)
(-360.67 0 0)
(-360.649 0 0)
(-360.638 0 0)
(-360.632 0 0)
(-360.629 0 0)
(-360.627 0 0)
(-360.626 0 0)
(-360.626 0 0)
(-360.625 0 0)
(-360.625 0 0)
(-360.625 0 0)
(-360.625 0 0)
(-360.625 0 0)
(-360.625 0 0)
(-360.625 0 0)
(-360.625 0 0)
(-360.625 0 0)
(-360.625 0 0)
(-360.625 0 0)
(-360.625 0 0)
(-360.625 0 0)
(-360.625 0 0)
(-360.625 0 0)
(-360.625 0 0)
(-360.625 0 0)
(-360.625 0 0)
(-360.625 0 0)
(-360.625 0 0)
(-360.625 0 0)
(-360.625 0 0)
(-360.625 0 0)
(-360.625 0 0)
(-360.625 0 0)
(-360.625 0 0)
(-360.625 0 0)
(-360.625 0 0)
(-360.625 0 0)
(-360.625 0 0)
(-360.625 0 0)
(-360.625 0 0)
(-360.625 0 0)
(-360.625 0 0)
(-360.625 0 0)
(-360.625 0 0)
(-360.625 0 0)
(-360.625 0 0)
(-360.625 0 0)
(-360.625 0 0)
(-360.625 0 0)
(-360.625 0 0)
(-360.625 0 0)
(-360.625 0 0)
(-360.625 0 0)
(-360.625 0 0)
(-360.625 0 0)
(-360.625 0 0)
(-360.625 0 0)
(-360.625 0 0)
(-360.625 0 0)
(-360.625 0 0)
(-360.625 0 0)
(-360.625 0 0)
(-360.625 0 0)
(-360.625 0 0)
(-360.625 0 0)
(-360.625 0 0)
(-360.625 0 0)
(-360.625 0 0)
(-360.625 0 0)
(-360.625 0 0)
(-360.625 0 0)
(-360.625 0 0)
(-360.625 0 0)
(-360.625 0 0)
(-360.625 0 0)
(-360.625 0 0)
(-360.625 0 0)
(-360.625 0 0)
(-360.625 0 0)
(-360.625 0 0)
(-360.625 0 0)
(-360.625 0 0)
(-360.625 0 0)
(-360.625 0 0)
(-360.624 0 0)
(-360.624 0 0)
(-360.645 0 0)
(-360.531 0 0)
(-360.717 0 0)
(-304.943 0 0)
(-442.953 0 0)
(-405.636 0 0)
(-399.938 0 0)
(-397.259 0 0)
(-395.749 0 0)
(-394.945 0 0)
(-394.518 0 0)
(-394.29 0 0)
(-394.168 0 0)
(-394.102 0 0)
(-394.066 0 0)
(-394.047 0 0)
(-394.037 0 0)
(-394.031 0 0)
(-394.028 0 0)
(-394.026 0 0)
(-394.025 0 0)
(-394.025 0 0)
(-394.025 0 0)
(-394.024 0 0)
(-394.024 0 0)
(-394.024 0 0)
(-394.024 0 0)
(-394.024 0 0)
(-394.024 0 0)
(-394.024 0 0)
(-394.024 0 0)
(-394.024 0 0)
(-394.024 0 0)
(-394.024 0 0)
(-394.024 0 0)
(-394.024 0 0)
(-394.024 0 0)
(-394.024 0 0)
(-394.024 0 0)
(-394.024 0 0)
(-394.024 0 0)
(-394.024 0 0)
(-394.024 0 0)
(-394.024 0 0)
(-394.024 0 0)
(-394.024 0 0)
(-394.024 0 0)
(-394.024 0 0)
(-394.024 0 0)
(-394.024 0 0)
(-394.024 0 0)
(-394.024 0 0)
(-394.024 0 0)
(-394.024 0 0)
(-394.024 0 0)
(-394.024 0 0)
(-394.024 0 0)
(-394.024 0 0)
(-394.024 0 0)
(-394.024 0 0)
(-394.024 0 0)
(-394.024 0 0)
(-394.024 0 0)
(-394.024 0 0)
(-394.024 0 0)
(-394.024 0 0)
(-394.024 0 0)
(-394.024 0 0)
(-394.024 0 0)
(-394.024 0 0)
(-394.024 0 0)
(-394.024 0 0)
(-394.024 0 0)
(-394.024 0 0)
(-394.024 0 0)
(-394.024 0 0)
(-394.024 0 0)
(-394.024 0 0)
(-394.024 0 0)
(-394.024 0 0)
(-394.024 0 0)
(-394.024 0 0)
(-394.024 0 0)
(-394.024 0 0)
(-394.024 0 0)
(-394.024 0 0)
(-394.024 0 0)
(-394.024 0 0)
(-394.024 0 0)
(-394.024 0 0)
(-394.024 0 0)
(-394.024 0 0)
(-394.024 0 0)
(-394.024 0 0)
(-394.024 0 0)
(-394.024 0 0)
(-394.024 0 0)
(-394.024 0 0)
(-394.023 0 0)
(-394.023 0 0)
(-394.046 0 0)
(-393.932 0 0)
(-394.11 0 0)
(-309.665 0 0)
(-451.909 0 0)
(-419.462 0 0)
(-415.632 0 0)
(-413.575 0 0)
(-412.3 0 0)
(-411.597 0 0)
(-411.218 0 0)
(-411.014 0 0)
(-410.903 0 0)
(-410.844 0 0)
(-410.812 0 0)
(-410.794 0 0)
(-410.785 0 0)
(-410.78 0 0)
(-410.777 0 0)
(-410.775 0 0)
(-410.775 0 0)
(-410.774 0 0)
(-410.774 0 0)
(-410.774 0 0)
(-410.774 0 0)
(-410.774 0 0)
(-410.774 0 0)
(-410.774 0 0)
(-410.774 0 0)
(-410.774 0 0)
(-410.774 0 0)
(-410.774 0 0)
(-410.774 0 0)
(-410.774 0 0)
(-410.774 0 0)
(-410.774 0 0)
(-410.774 0 0)
(-410.774 0 0)
(-410.774 0 0)
(-410.774 0 0)
(-410.774 0 0)
(-410.774 0 0)
(-410.774 0 0)
(-410.774 0 0)
(-410.774 0 0)
(-410.774 0 0)
(-410.774 0 0)
(-410.774 0 0)
(-410.774 0 0)
(-410.774 0 0)
(-410.774 0 0)
(-410.774 0 0)
(-410.774 0 0)
(-410.774 0 0)
(-410.774 0 0)
(-410.774 0 0)
(-410.774 0 0)
(-410.774 0 0)
(-410.774 0 0)
(-410.774 0 0)
(-410.774 0 0)
(-410.774 0 0)
(-410.774 0 0)
(-410.774 0 0)
(-410.774 0 0)
(-410.774 0 0)
(-410.774 0 0)
(-410.774 0 0)
(-410.774 0 0)
(-410.774 0 0)
(-410.774 0 0)
(-410.774 0 0)
(-410.774 0 0)
(-410.774 0 0)
(-410.774 0 0)
(-410.774 0 0)
(-410.774 0 0)
(-410.774 0 0)
(-410.774 0 0)
(-410.774 0 0)
(-410.774 0 0)
(-410.774 0 0)
(-410.774 0 0)
(-410.774 0 0)
(-410.774 0 0)
(-410.774 0 0)
(-410.774 0 0)
(-410.774 0 0)
(-410.774 0 0)
(-410.774 0 0)
(-410.774 0 0)
(-410.774 0 0)
(-410.774 0 0)
(-410.774 0 0)
(-410.774 0 0)
(-410.774 0 0)
(-410.774 0 0)
(-410.773 0 0)
(-410.773 0 0)
(-410.773 0 0)
(-410.798 0 0)
(-410.683 0 0)
(-410.856 0 0)
(-310.463 0 0)
(-454.066 0 0)
(-425.1 0 0)
(-422.896 0 0)
(-421.471 0 0)
(-420.46 0 0)
(-419.877 0 0)
(-419.556 0 0)
(-419.381 0 0)
(-419.286 0 0)
(-419.234 0 0)
(-419.206 0 0)
(-419.191 0 0)
(-419.183 0 0)
(-419.179 0 0)
(-419.176 0 0)
(-419.175 0 0)
(-419.174 0 0)
(-419.174 0 0)
(-419.174 0 0)
(-419.174 0 0)
(-419.174 0 0)
(-419.173 0 0)
(-419.173 0 0)
(-419.173 0 0)
(-419.173 0 0)
(-419.173 0 0)
(-419.173 0 0)
(-419.173 0 0)
(-419.173 0 0)
(-419.173 0 0)
(-419.173 0 0)
(-419.173 0 0)
(-419.173 0 0)
(-419.173 0 0)
(-419.173 0 0)
(-419.173 0 0)
(-419.173 0 0)
(-419.173 0 0)
(-419.173 0 0)
(-419.173 0 0)
(-419.173 0 0)
(-419.173 0 0)
(-419.173 0 0)
(-419.173 0 0)
(-419.173 0 0)
(-419.173 0 0)
(-419.173 0 0)
(-419.173 0 0)
(-419.173 0 0)
(-419.173 0 0)
(-419.173 0 0)
(-419.173 0 0)
(-419.173 0 0)
(-419.173 0 0)
(-419.173 0 0)
(-419.173 0 0)
(-419.173 0 0)
(-419.173 0 0)
(-419.173 0 0)
(-419.173 0 0)
(-419.173 0 0)
(-419.173 0 0)
(-419.173 0 0)
(-419.173 0 0)
(-419.173 0 0)
(-419.173 0 0)
(-419.173 0 0)
(-419.173 0 0)
(-419.173 0 0)
(-419.173 0 0)
(-419.173 0 0)
(-419.173 0 0)
(-419.173 0 0)
(-419.173 0 0)
(-419.173 0 0)
(-419.173 0 0)
(-419.173 0 0)
(-419.173 0 0)
(-419.173 0 0)
(-419.173 0 0)
(-419.173 0 0)
(-419.173 0 0)
(-419.173 0 0)
(-419.173 0 0)
(-419.173 0 0)
(-419.173 0 0)
(-419.173 0 0)
(-419.173 0 0)
(-419.173 0 0)
(-419.173 0 0)
(-419.173 0 0)
(-419.173 0 0)
(-419.173 0 0)
(-419.173 0 0)
(-419.173 0 0)
(-419.173 0 0)
(-419.199 0 0)
(-419.084 0 0)
(-419.252 0 0)
(-309.721 0 0)
(-453.284 0 0)
(-426.773 0 0)
(-425.948 0 0)
(-425.137 0 0)
(-424.403 0 0)
(-423.952 0 0)
(-423.697 0 0)
(-423.556 0 0)
(-423.478 0 0)
(-423.436 0 0)
(-423.413 0 0)
(-423.401 0 0)
(-423.394 0 0)
(-423.39 0 0)
(-423.388 0 0)
(-423.387 0 0)
(-423.387 0 0)
(-423.386 0 0)
(-423.386 0 0)
(-423.386 0 0)
(-423.386 0 0)
(-423.386 0 0)
(-423.386 0 0)
(-423.386 0 0)
(-423.386 0 0)
(-423.386 0 0)
(-423.386 0 0)
(-423.386 0 0)
(-423.386 0 0)
(-423.386 0 0)
(-423.386 0 0)
(-423.386 0 0)
(-423.386 0 0)
(-423.386 0 0)
(-423.386 0 0)
(-423.386 0 0)
(-423.386 0 0)
(-423.386 0 0)
(-423.386 0 0)
(-423.386 0 0)
(-423.386 0 0)
(-423.386 0 0)
(-423.386 0 0)
(-423.386 0 0)
(-423.386 0 0)
(-423.386 0 0)
(-423.386 0 0)
(-423.386 0 0)
(-423.386 0 0)
(-423.386 0 0)
(-423.386 0 0)
(-423.386 0 0)
(-423.386 0 0)
(-423.386 0 0)
(-423.386 0 0)
(-423.386 0 0)
(-423.386 0 0)
(-423.386 0 0)
(-423.386 0 0)
(-423.386 0 0)
(-423.386 0 0)
(-423.386 0 0)
(-423.386 0 0)
(-423.386 0 0)
(-423.386 0 0)
(-423.386 0 0)
(-423.386 0 0)
(-423.386 0 0)
(-423.386 0 0)
(-423.386 0 0)
(-423.386 0 0)
(-423.386 0 0)
(-423.386 0 0)
(-423.386 0 0)
(-423.386 0 0)
(-423.386 0 0)
(-423.386 0 0)
(-423.386 0 0)
(-423.386 0 0)
(-423.386 0 0)
(-423.386 0 0)
(-423.386 0 0)
(-423.386 0 0)
(-423.386 0 0)
(-423.386 0 0)
(-423.386 0 0)
(-423.386 0 0)
(-423.386 0 0)
(-423.386 0 0)
(-423.386 0 0)
(-423.386 0 0)
(-423.386 0 0)
(-423.386 0 0)
(-423.386 0 0)
(-423.385 0 0)
(-423.386 0 0)
(-423.413 0 0)
(-423.297 0 0)
(-423.462 0 0)
(-308.488 0 0)
(-451.389 0 0)
(-426.589 0 0)
(-426.918 0 0)
(-426.68 0 0)
(-426.226 0 0)
(-425.914 0 0)
(-425.73 0 0)
(-425.626 0 0)
(-425.568 0 0)
(-425.536 0 0)
(-425.519 0 0)
(-425.51 0 0)
(-425.504 0 0)
(-425.502 0 0)
(-425.5 0 0)
(-425.499 0 0)
(-425.499 0 0)
(-425.499 0 0)
(-425.498 0 0)
(-425.498 0 0)
(-425.498 0 0)
(-425.498 0 0)
(-425.498 0 0)
(-425.498 0 0)
(-425.498 0 0)
(-425.498 0 0)
(-425.498 0 0)
(-425.498 0 0)
(-425.498 0 0)
(-425.498 0 0)
(-425.498 0 0)
(-425.498 0 0)
(-425.498 0 0)
(-425.498 0 0)
(-425.498 0 0)
(-425.498 0 0)
(-425.498 0 0)
(-425.498 0 0)
(-425.498 0 0)
(-425.498 0 0)
(-425.498 0 0)
(-425.498 0 0)
(-425.498 0 0)
(-425.498 0 0)
(-425.498 0 0)
(-425.498 0 0)
(-425.498 0 0)
(-425.498 0 0)
(-425.498 0 0)
(-425.498 0 0)
(-425.498 0 0)
(-425.498 0 0)
(-425.498 0 0)
(-425.498 0 0)
(-425.498 0 0)
(-425.498 0 0)
(-425.498 0 0)
(-425.498 0 0)
(-425.498 0 0)
(-425.498 0 0)
(-425.498 0 0)
(-425.498 0 0)
(-425.498 0 0)
(-425.498 0 0)
(-425.498 0 0)
(-425.498 0 0)
(-425.498 0 0)
(-425.498 0 0)
(-425.498 0 0)
(-425.498 0 0)
(-425.498 0 0)
(-425.498 0 0)
(-425.498 0 0)
(-425.498 0 0)
(-425.498 0 0)
(-425.498 0 0)
(-425.498 0 0)
(-425.498 0 0)
(-425.498 0 0)
(-425.498 0 0)
(-425.498 0 0)
(-425.498 0 0)
(-425.498 0 0)
(-425.498 0 0)
(-425.498 0 0)
(-425.498 0 0)
(-425.498 0 0)
(-425.498 0 0)
(-425.498 0 0)
(-425.498 0 0)
(-425.498 0 0)
(-425.498 0 0)
(-425.498 0 0)
(-425.498 0 0)
(-425.498 0 0)
(-425.499 0 0)
(-425.526 0 0)
(-425.41 0 0)
(-425.573 0 0)
(-307.21 0 0)
(-449.216 0 0)
(-425.599 0 0)
(-426.881 0 0)
(-427.168 0 0)
(-426.985 0 0)
(-426.815 0 0)
(-426.705 0 0)
(-426.64 0 0)
(-426.603 0 0)
(-426.583 0 0)
(-426.571 0 0)
(-426.565 0 0)
(-426.562 0 0)
(-426.56 0 0)
(-426.559 0 0)
(-426.558 0 0)
(-426.558 0 0)
(-426.558 0 0)
(-426.558 0 0)
(-426.558 0 0)
(-426.558 0 0)
(-426.558 0 0)
(-426.558 0 0)
(-426.558 0 0)
(-426.558 0 0)
(-426.558 0 0)
(-426.558 0 0)
(-426.558 0 0)
(-426.558 0 0)
(-426.558 0 0)
(-426.558 0 0)
(-426.558 0 0)
(-426.558 0 0)
(-426.558 0 0)
(-426.558 0 0)
(-426.558 0 0)
(-426.558 0 0)
(-426.558 0 0)
(-426.558 0 0)
(-426.558 0 0)
(-426.558 0 0)
(-426.558 0 0)
(-426.558 0 0)
(-426.558 0 0)
(-426.558 0 0)
(-426.558 0 0)
(-426.558 0 0)
(-426.558 0 0)
(-426.558 0 0)
(-426.558 0 0)
(-426.558 0 0)
(-426.558 0 0)
(-426.558 0 0)
(-426.558 0 0)
(-426.558 0 0)
(-426.558 0 0)
(-426.558 0 0)
(-426.558 0 0)
(-426.558 0 0)
(-426.558 0 0)
(-426.558 0 0)
(-426.558 0 0)
(-426.558 0 0)
(-426.558 0 0)
(-426.558 0 0)
(-426.558 0 0)
(-426.558 0 0)
(-426.558 0 0)
(-426.558 0 0)
(-426.558 0 0)
(-426.558 0 0)
(-426.558 0 0)
(-426.558 0 0)
(-426.558 0 0)
(-426.558 0 0)
(-426.558 0 0)
(-426.558 0 0)
(-426.558 0 0)
(-426.558 0 0)
(-426.558 0 0)
(-426.558 0 0)
(-426.558 0 0)
(-426.558 0 0)
(-426.558 0 0)
(-426.558 0 0)
(-426.558 0 0)
(-426.558 0 0)
(-426.558 0 0)
(-426.558 0 0)
(-426.558 0 0)
(-426.558 0 0)
(-426.558 0 0)
(-426.558 0 0)
(-426.558 0 0)
(-426.558 0 0)
(-426.559 0 0)
(-426.586 0 0)
(-426.469 0 0)
(-426.631 0 0)
(-306.053 0 0)
(-447.128 0 0)
(-424.319 0 0)
(-426.381 0 0)
(-427.14 0 0)
(-427.215 0 0)
(-427.185 0 0)
(-427.149 0 0)
(-427.125 0 0)
(-427.109 0 0)
(-427.1 0 0)
(-427.095 0 0)
(-427.092 0 0)
(-427.091 0 0)
(-427.09 0 0)
(-427.09 0 0)
(-427.089 0 0)
(-427.089 0 0)
(-427.089 0 0)
(-427.089 0 0)
(-427.089 0 0)
(-427.089 0 0)
(-427.089 0 0)
(-427.089 0 0)
(-427.089 0 0)
(-427.089 0 0)
(-427.089 0 0)
(-427.089 0 0)
(-427.089 0 0)
(-427.089 0 0)
(-427.089 0 0)
(-427.089 0 0)
(-427.089 0 0)
(-427.089 0 0)
(-427.089 0 0)
(-427.089 0 0)
(-427.089 0 0)
(-427.089 0 0)
(-427.089 0 0)
(-427.089 0 0)
(-427.089 0 0)
(-427.089 0 0)
(-427.089 0 0)
(-427.089 0 0)
(-427.089 0 0)
(-427.089 0 0)
(-427.089 0 0)
(-427.089 0 0)
(-427.089 0 0)
(-427.089 0 0)
(-427.089 0 0)
(-427.089 0 0)
(-427.089 0 0)
(-427.089 0 0)
(-427.089 0 0)
(-427.089 0 0)
(-427.089 0 0)
(-427.089 0 0)
(-427.089 0 0)
(-427.089 0 0)
(-427.089 0 0)
(-427.089 0 0)
(-427.089 0 0)
(-427.089 0 0)
(-427.089 0 0)
(-427.089 0 0)
(-427.089 0 0)
(-427.089 0 0)
(-427.089 0 0)
(-427.089 0 0)
(-427.089 0 0)
(-427.089 0 0)
(-427.089 0 0)
(-427.089 0 0)
(-427.089 0 0)
(-427.089 0 0)
(-427.089 0 0)
(-427.089 0 0)
(-427.089 0 0)
(-427.089 0 0)
(-427.089 0 0)
(-427.089 0 0)
(-427.089 0 0)
(-427.089 0 0)
(-427.089 0 0)
(-427.089 0 0)
(-427.089 0 0)
(-427.089 0 0)
(-427.089 0 0)
(-427.089 0 0)
(-427.089 0 0)
(-427.089 0 0)
(-427.089 0 0)
(-427.089 0 0)
(-427.089 0 0)
(-427.089 0 0)
(-427.09 0 0)
(-427.118 0 0)
(-427 0 0)
(-427.161 0 0)
(-305.068 0 0)
(-445.266 0 0)
(-422.999 0 0)
(-425.695 0 0)
(-426.87 0 0)
(-427.187 0 0)
(-427.29 0 0)
(-427.328 0 0)
(-427.344 0 0)
(-427.35 0 0)
(-427.353 0 0)
(-427.354 0 0)
(-427.355 0 0)
(-427.355 0 0)
(-427.355 0 0)
(-427.355 0 0)
(-427.355 0 0)
(-427.355 0 0)
(-427.355 0 0)
(-427.355 0 0)
(-427.355 0 0)
(-427.355 0 0)
(-427.355 0 0)
(-427.355 0 0)
(-427.355 0 0)
(-427.355 0 0)
(-427.355 0 0)
(-427.355 0 0)
(-427.355 0 0)
(-427.355 0 0)
(-427.355 0 0)
(-427.355 0 0)
(-427.355 0 0)
(-427.355 0 0)
(-427.355 0 0)
(-427.355 0 0)
(-427.355 0 0)
(-427.355 0 0)
(-427.355 0 0)
(-427.355 0 0)
(-427.355 0 0)
(-427.355 0 0)
(-427.355 0 0)
(-427.355 0 0)
(-427.355 0 0)
(-427.355 0 0)
(-427.355 0 0)
(-427.355 0 0)
(-427.355 0 0)
(-427.355 0 0)
(-427.355 0 0)
(-427.355 0 0)
(-427.355 0 0)
(-427.355 0 0)
(-427.355 0 0)
(-427.355 0 0)
(-427.355 0 0)
(-427.355 0 0)
(-427.355 0 0)
(-427.355 0 0)
(-427.355 0 0)
(-427.355 0 0)
(-427.355 0 0)
(-427.355 0 0)
(-427.355 0 0)
(-427.355 0 0)
(-427.355 0 0)
(-427.355 0 0)
(-427.355 0 0)
(-427.355 0 0)
(-427.355 0 0)
(-427.355 0 0)
(-427.355 0 0)
(-427.355 0 0)
(-427.355 0 0)
(-427.355 0 0)
(-427.355 0 0)
(-427.355 0 0)
(-427.355 0 0)
(-427.355 0 0)
(-427.355 0 0)
(-427.355 0 0)
(-427.355 0 0)
(-427.355 0 0)
(-427.355 0 0)
(-427.355 0 0)
(-427.355 0 0)
(-427.355 0 0)
(-427.355 0 0)
(-427.355 0 0)
(-427.355 0 0)
(-427.355 0 0)
(-427.355 0 0)
(-427.355 0 0)
(-427.356 0 0)
(-427.356 0 0)
(-427.357 0 0)
(-427.385 0 0)
(-427.267 0 0)
(-427.426 0 0)
(-304.254 0 0)
(-443.667 0 0)
(-421.758 0 0)
(-424.963 0 0)
(-426.502 0 0)
(-427.038 0 0)
(-427.267 0 0)
(-427.376 0 0)
(-427.43 0 0)
(-427.458 0 0)
(-427.473 0 0)
(-427.48 0 0)
(-427.484 0 0)
(-427.486 0 0)
(-427.488 0 0)
(-427.488 0 0)
(-427.489 0 0)
(-427.489 0 0)
(-427.489 0 0)
(-427.489 0 0)
(-427.489 0 0)
(-427.489 0 0)
(-427.489 0 0)
(-427.489 0 0)
(-427.489 0 0)
(-427.489 0 0)
(-427.489 0 0)
(-427.489 0 0)
(-427.489 0 0)
(-427.489 0 0)
(-427.489 0 0)
(-427.489 0 0)
(-427.489 0 0)
(-427.489 0 0)
(-427.489 0 0)
(-427.489 0 0)
(-427.489 0 0)
(-427.489 0 0)
(-427.489 0 0)
(-427.489 0 0)
(-427.489 0 0)
(-427.489 0 0)
(-427.489 0 0)
(-427.489 0 0)
(-427.489 0 0)
(-427.489 0 0)
(-427.489 0 0)
(-427.489 0 0)
(-427.489 0 0)
(-427.489 0 0)
(-427.489 0 0)
(-427.489 0 0)
(-427.489 0 0)
(-427.489 0 0)
(-427.489 0 0)
(-427.489 0 0)
(-427.489 0 0)
(-427.489 0 0)
(-427.489 0 0)
(-427.489 0 0)
(-427.489 0 0)
(-427.489 0 0)
(-427.489 0 0)
(-427.489 0 0)
(-427.489 0 0)
(-427.489 0 0)
(-427.489 0 0)
(-427.489 0 0)
(-427.489 0 0)
(-427.489 0 0)
(-427.489 0 0)
(-427.489 0 0)
(-427.489 0 0)
(-427.489 0 0)
(-427.489 0 0)
(-427.489 0 0)
(-427.489 0 0)
(-427.489 0 0)
(-427.489 0 0)
(-427.489 0 0)
(-427.489 0 0)
(-427.489 0 0)
(-427.489 0 0)
(-427.489 0 0)
(-427.489 0 0)
(-427.489 0 0)
(-427.489 0 0)
(-427.489 0 0)
(-427.489 0 0)
(-427.489 0 0)
(-427.489 0 0)
(-427.489 0 0)
(-427.489 0 0)
(-427.489 0 0)
(-427.489 0 0)
(-427.489 0 0)
(-427.491 0 0)
(-427.519 0 0)
(-427.4 0 0)
(-427.559 0 0)
(-303.594 0 0)
(-442.327 0 0)
(-420.645 0 0)
(-424.257 0 0)
(-426.108 0 0)
(-426.841 0 0)
(-427.187 0 0)
(-427.361 0 0)
(-427.453 0 0)
(-427.501 0 0)
(-427.526 0 0)
(-427.54 0 0)
(-427.547 0 0)
(-427.551 0 0)
(-427.554 0 0)
(-427.555 0 0)
(-427.555 0 0)
(-427.556 0 0)
(-427.556 0 0)
(-427.556 0 0)
(-427.556 0 0)
(-427.556 0 0)
(-427.556 0 0)
(-427.556 0 0)
(-427.556 0 0)
(-427.556 0 0)
(-427.556 0 0)
(-427.556 0 0)
(-427.556 0 0)
(-427.556 0 0)
(-427.556 0 0)
(-427.556 0 0)
(-427.556 0 0)
(-427.556 0 0)
(-427.556 0 0)
(-427.556 0 0)
(-427.556 0 0)
(-427.556 0 0)
(-427.556 0 0)
(-427.556 0 0)
(-427.556 0 0)
(-427.556 0 0)
(-427.556 0 0)
(-427.556 0 0)
(-427.556 0 0)
(-427.556 0 0)
(-427.556 0 0)
(-427.556 0 0)
(-427.556 0 0)
(-427.556 0 0)
(-427.556 0 0)
(-427.556 0 0)
(-427.556 0 0)
(-427.556 0 0)
(-427.556 0 0)
(-427.556 0 0)
(-427.556 0 0)
(-427.556 0 0)
(-427.556 0 0)
(-427.556 0 0)
(-427.556 0 0)
(-427.556 0 0)
(-427.556 0 0)
(-427.556 0 0)
(-427.556 0 0)
(-427.556 0 0)
(-427.556 0 0)
(-427.556 0 0)
(-427.556 0 0)
(-427.556 0 0)
(-427.556 0 0)
(-427.556 0 0)
(-427.556 0 0)
(-427.556 0 0)
(-427.556 0 0)
(-427.556 0 0)
(-427.556 0 0)
(-427.556 0 0)
(-427.556 0 0)
(-427.556 0 0)
(-427.556 0 0)
(-427.556 0 0)
(-427.556 0 0)
(-427.556 0 0)
(-427.556 0 0)
(-427.556 0 0)
(-427.556 0 0)
(-427.556 0 0)
(-427.556 0 0)
(-427.556 0 0)
(-427.556 0 0)
(-427.556 0 0)
(-427.556 0 0)
(-427.556 0 0)
(-427.556 0 0)
(-427.556 0 0)
(-427.558 0 0)
(-427.586 0 0)
(-427.467 0 0)
(-427.626 0 0)
(-303.065 0 0)
(-441.222 0 0)
(-419.68 0 0)
(-423.614 0 0)
(-425.729 0 0)
(-426.635 0 0)
(-427.084 0 0)
(-427.319 0 0)
(-427.444 0 0)
(-427.511 0 0)
(-427.547 0 0)
(-427.567 0 0)
(-427.577 0 0)
(-427.583 0 0)
(-427.586 0 0)
(-427.588 0 0)
(-427.589 0 0)
(-427.589 0 0)
(-427.589 0 0)
(-427.589 0 0)
(-427.59 0 0)
(-427.59 0 0)
(-427.59 0 0)
(-427.59 0 0)
(-427.59 0 0)
(-427.59 0 0)
(-427.59 0 0)
(-427.59 0 0)
(-427.59 0 0)
(-427.59 0 0)
(-427.59 0 0)
(-427.59 0 0)
(-427.59 0 0)
(-427.59 0 0)
(-427.59 0 0)
(-427.59 0 0)
(-427.59 0 0)
(-427.59 0 0)
(-427.59 0 0)
(-427.59 0 0)
(-427.59 0 0)
(-427.59 0 0)
(-427.59 0 0)
(-427.59 0 0)
(-427.59 0 0)
(-427.59 0 0)
(-427.59 0 0)
(-427.59 0 0)
(-427.59 0 0)
(-427.59 0 0)
(-427.59 0 0)
(-427.59 0 0)
(-427.59 0 0)
(-427.59 0 0)
(-427.59 0 0)
(-427.59 0 0)
(-427.59 0 0)
(-427.59 0 0)
(-427.59 0 0)
(-427.59 0 0)
(-427.59 0 0)
(-427.59 0 0)
(-427.59 0 0)
(-427.59 0 0)
(-427.59 0 0)
(-427.59 0 0)
(-427.59 0 0)
(-427.59 0 0)
(-427.59 0 0)
(-427.59 0 0)
(-427.59 0 0)
(-427.59 0 0)
(-427.59 0 0)
(-427.59 0 0)
(-427.59 0 0)
(-427.59 0 0)
(-427.59 0 0)
(-427.59 0 0)
(-427.59 0 0)
(-427.59 0 0)
(-427.59 0 0)
(-427.59 0 0)
(-427.59 0 0)
(-427.59 0 0)
(-427.59 0 0)
(-427.59 0 0)
(-427.59 0 0)
(-427.59 0 0)
(-427.59 0 0)
(-427.59 0 0)
(-427.59 0 0)
(-427.59 0 0)
(-427.59 0 0)
(-427.59 0 0)
(-427.59 0 0)
(-427.59 0 0)
(-427.592 0 0)
(-427.62 0 0)
(-427.501 0 0)
(-427.659 0 0)
(-302.647 0 0)
(-440.327 0 0)
(-418.866 0 0)
(-423.051 0 0)
(-425.385 0 0)
(-426.439 0 0)
(-426.979 0 0)
(-427.268 0 0)
(-427.423 0 0)
(-427.507 0 0)
(-427.553 0 0)
(-427.577 0 0)
(-427.591 0 0)
(-427.598 0 0)
(-427.602 0 0)
(-427.604 0 0)
(-427.605 0 0)
(-427.606 0 0)
(-427.606 0 0)
(-427.606 0 0)
(-427.606 0 0)
(-427.606 0 0)
(-427.606 0 0)
(-427.606 0 0)
(-427.607 0 0)
(-427.607 0 0)
(-427.607 0 0)
(-427.607 0 0)
(-427.607 0 0)
(-427.607 0 0)
(-427.607 0 0)
(-427.607 0 0)
(-427.607 0 0)
(-427.607 0 0)
(-427.607 0 0)
(-427.607 0 0)
(-427.607 0 0)
(-427.607 0 0)
(-427.607 0 0)
(-427.607 0 0)
(-427.607 0 0)
(-427.607 0 0)
(-427.607 0 0)
(-427.607 0 0)
(-427.607 0 0)
(-427.607 0 0)
(-427.607 0 0)
(-427.607 0 0)
(-427.607 0 0)
(-427.607 0 0)
(-427.607 0 0)
(-427.607 0 0)
(-427.607 0 0)
(-427.607 0 0)
(-427.607 0 0)
(-427.607 0 0)
(-427.607 0 0)
(-427.607 0 0)
(-427.607 0 0)
(-427.607 0 0)
(-427.607 0 0)
(-427.607 0 0)
(-427.607 0 0)
(-427.607 0 0)
(-427.607 0 0)
(-427.607 0 0)
(-427.607 0 0)
(-427.607 0 0)
(-427.607 0 0)
(-427.607 0 0)
(-427.607 0 0)
(-427.607 0 0)
(-427.607 0 0)
(-427.607 0 0)
(-427.607 0 0)
(-427.607 0 0)
(-427.607 0 0)
(-427.607 0 0)
(-427.607 0 0)
(-427.607 0 0)
(-427.607 0 0)
(-427.607 0 0)
(-427.607 0 0)
(-427.607 0 0)
(-427.607 0 0)
(-427.607 0 0)
(-427.607 0 0)
(-427.607 0 0)
(-427.607 0 0)
(-427.607 0 0)
(-427.607 0 0)
(-427.607 0 0)
(-427.607 0 0)
(-427.607 0 0)
(-427.607 0 0)
(-427.607 0 0)
(-427.609 0 0)
(-427.637 0 0)
(-427.518 0 0)
(-427.675 0 0)
(-302.323 0 0)
(-439.618 0 0)
(-418.2 0 0)
(-422.577 0 0)
(-425.088 0 0)
(-426.265 0 0)
(-426.883 0 0)
(-427.217 0 0)
(-427.399 0 0)
(-427.498 0 0)
(-427.551 0 0)
(-427.58 0 0)
(-427.596 0 0)
(-427.605 0 0)
(-427.609 0 0)
(-427.612 0 0)
(-427.613 0 0)
(-427.614 0 0)
(-427.614 0 0)
(-427.615 0 0)
(-427.615 0 0)
(-427.615 0 0)
(-427.615 0 0)
(-427.615 0 0)
(-427.615 0 0)
(-427.615 0 0)
(-427.615 0 0)
(-427.615 0 0)
(-427.615 0 0)
(-427.615 0 0)
(-427.615 0 0)
(-427.615 0 0)
(-427.615 0 0)
(-427.615 0 0)
(-427.615 0 0)
(-427.615 0 0)
(-427.615 0 0)
(-427.615 0 0)
(-427.615 0 0)
(-427.615 0 0)
(-427.615 0 0)
(-427.615 0 0)
(-427.615 0 0)
(-427.615 0 0)
(-427.615 0 0)
(-427.615 0 0)
(-427.615 0 0)
(-427.615 0 0)
(-427.615 0 0)
(-427.615 0 0)
(-427.615 0 0)
(-427.615 0 0)
(-427.615 0 0)
(-427.615 0 0)
(-427.615 0 0)
(-427.615 0 0)
(-427.615 0 0)
(-427.615 0 0)
(-427.615 0 0)
(-427.615 0 0)
(-427.615 0 0)
(-427.615 0 0)
(-427.615 0 0)
(-427.615 0 0)
(-427.615 0 0)
(-427.615 0 0)
(-427.615 0 0)
(-427.615 0 0)
(-427.615 0 0)
(-427.615 0 0)
(-427.615 0 0)
(-427.615 0 0)
(-427.615 0 0)
(-427.615 0 0)
(-427.615 0 0)
(-427.615 0 0)
(-427.615 0 0)
(-427.615 0 0)
(-427.615 0 0)
(-427.615 0 0)
(-427.615 0 0)
(-427.615 0 0)
(-427.615 0 0)
(-427.615 0 0)
(-427.615 0 0)
(-427.615 0 0)
(-427.615 0 0)
(-427.615 0 0)
(-427.615 0 0)
(-427.615 0 0)
(-427.615 0 0)
(-427.615 0 0)
(-427.615 0 0)
(-427.615 0 0)
(-427.615 0 0)
(-427.616 0 0)
(-427.617 0 0)
(-427.645 0 0)
(-427.526 0 0)
(-427.683 0 0)
(-302.079 0 0)
(-439.075 0 0)
(-417.676 0 0)
(-422.196 0 0)
(-424.845 0 0)
(-426.121 0 0)
(-426.8 0 0)
(-427.172 0 0)
(-427.376 0 0)
(-427.487 0 0)
(-427.547 0 0)
(-427.58 0 0)
(-427.598 0 0)
(-427.608 0 0)
(-427.613 0 0)
(-427.616 0 0)
(-427.617 0 0)
(-427.618 0 0)
(-427.619 0 0)
(-427.619 0 0)
(-427.619 0 0)
(-427.619 0 0)
(-427.619 0 0)
(-427.619 0 0)
(-427.619 0 0)
(-427.619 0 0)
(-427.619 0 0)
(-427.619 0 0)
(-427.619 0 0)
(-427.619 0 0)
(-427.619 0 0)
(-427.619 0 0)
(-427.619 0 0)
(-427.619 0 0)
(-427.619 0 0)
(-427.619 0 0)
(-427.619 0 0)
(-427.619 0 0)
(-427.619 0 0)
(-427.619 0 0)
(-427.619 0 0)
(-427.619 0 0)
(-427.619 0 0)
(-427.619 0 0)
(-427.619 0 0)
(-427.619 0 0)
(-427.619 0 0)
(-427.619 0 0)
(-427.619 0 0)
(-427.619 0 0)
(-427.619 0 0)
(-427.619 0 0)
(-427.619 0 0)
(-427.619 0 0)
(-427.619 0 0)
(-427.619 0 0)
(-427.619 0 0)
(-427.619 0 0)
(-427.619 0 0)
(-427.619 0 0)
(-427.619 0 0)
(-427.619 0 0)
(-427.619 0 0)
(-427.619 0 0)
(-427.619 0 0)
(-427.619 0 0)
(-427.619 0 0)
(-427.619 0 0)
(-427.619 0 0)
(-427.619 0 0)
(-427.619 0 0)
(-427.619 0 0)
(-427.619 0 0)
(-427.619 0 0)
(-427.619 0 0)
(-427.619 0 0)
(-427.619 0 0)
(-427.619 0 0)
(-427.619 0 0)
(-427.619 0 0)
(-427.619 0 0)
(-427.619 0 0)
(-427.619 0 0)
(-427.619 0 0)
(-427.619 0 0)
(-427.619 0 0)
(-427.619 0 0)
(-427.619 0 0)
(-427.619 0 0)
(-427.619 0 0)
(-427.619 0 0)
(-427.619 0 0)
(-427.619 0 0)
(-427.619 0 0)
(-427.62 0 0)
(-427.62 0 0)
(-427.621 0 0)
(-427.649 0 0)
(-427.53 0 0)
(-427.687 0 0)
(-301.904 0 0)
(-438.682 0 0)
(-417.289 0 0)
(-421.91 0 0)
(-424.66 0 0)
(-426.009 0 0)
(-426.737 0 0)
(-427.137 0 0)
(-427.357 0 0)
(-427.477 0 0)
(-427.543 0 0)
(-427.579 0 0)
(-427.598 0 0)
(-427.609 0 0)
(-427.614 0 0)
(-427.618 0 0)
(-427.619 0 0)
(-427.62 0 0)
(-427.621 0 0)
(-427.621 0 0)
(-427.621 0 0)
(-427.621 0 0)
(-427.621 0 0)
(-427.621 0 0)
(-427.621 0 0)
(-427.621 0 0)
(-427.621 0 0)
(-427.621 0 0)
(-427.621 0 0)
(-427.621 0 0)
(-427.621 0 0)
(-427.621 0 0)
(-427.621 0 0)
(-427.621 0 0)
(-427.621 0 0)
(-427.621 0 0)
(-427.621 0 0)
(-427.621 0 0)
(-427.621 0 0)
(-427.621 0 0)
(-427.621 0 0)
(-427.621 0 0)
(-427.621 0 0)
(-427.621 0 0)
(-427.621 0 0)
(-427.621 0 0)
(-427.621 0 0)
(-427.621 0 0)
(-427.621 0 0)
(-427.621 0 0)
(-427.621 0 0)
(-427.621 0 0)
(-427.621 0 0)
(-427.621 0 0)
(-427.621 0 0)
(-427.621 0 0)
(-427.621 0 0)
(-427.621 0 0)
(-427.621 0 0)
(-427.621 0 0)
(-427.621 0 0)
(-427.621 0 0)
(-427.621 0 0)
(-427.621 0 0)
(-427.621 0 0)
(-427.621 0 0)
(-427.621 0 0)
(-427.621 0 0)
(-427.621 0 0)
(-427.621 0 0)
(-427.621 0 0)
(-427.621 0 0)
(-427.621 0 0)
(-427.621 0 0)
(-427.621 0 0)
(-427.621 0 0)
(-427.621 0 0)
(-427.621 0 0)
(-427.621 0 0)
(-427.621 0 0)
(-427.621 0 0)
(-427.621 0 0)
(-427.621 0 0)
(-427.621 0 0)
(-427.621 0 0)
(-427.621 0 0)
(-427.621 0 0)
(-427.621 0 0)
(-427.621 0 0)
(-427.621 0 0)
(-427.621 0 0)
(-427.621 0 0)
(-427.621 0 0)
(-427.622 0 0)
(-427.622 0 0)
(-427.622 0 0)
(-427.624 0 0)
(-427.652 0 0)
(-427.532 0 0)
(-427.689 0 0)
(-301.791 0 0)
(-438.426 0 0)
(-417.034 0 0)
(-421.72 0 0)
(-424.536 0 0)
(-425.934 0 0)
(-426.693 0 0)
(-427.112 0 0)
(-427.343 0 0)
(-427.47 0 0)
(-427.54 0 0)
(-427.577 0 0)
(-427.598 0 0)
(-427.609 0 0)
(-427.615 0 0)
(-427.618 0 0)
(-427.62 0 0)
(-427.621 0 0)
(-427.622 0 0)
(-427.622 0 0)
(-427.622 0 0)
(-427.622 0 0)
(-427.622 0 0)
(-427.622 0 0)
(-427.622 0 0)
(-427.622 0 0)
(-427.622 0 0)
(-427.622 0 0)
(-427.622 0 0)
(-427.622 0 0)
(-427.622 0 0)
(-427.622 0 0)
(-427.622 0 0)
(-427.622 0 0)
(-427.622 0 0)
(-427.622 0 0)
(-427.622 0 0)
(-427.622 0 0)
(-427.622 0 0)
(-427.622 0 0)
(-427.622 0 0)
(-427.622 0 0)
(-427.622 0 0)
(-427.622 0 0)
(-427.622 0 0)
(-427.622 0 0)
(-427.622 0 0)
(-427.622 0 0)
(-427.622 0 0)
(-427.622 0 0)
(-427.622 0 0)
(-427.622 0 0)
(-427.622 0 0)
(-427.622 0 0)
(-427.622 0 0)
(-427.622 0 0)
(-427.622 0 0)
(-427.622 0 0)
(-427.622 0 0)
(-427.622 0 0)
(-427.622 0 0)
(-427.622 0 0)
(-427.622 0 0)
(-427.622 0 0)
(-427.622 0 0)
(-427.622 0 0)
(-427.622 0 0)
(-427.622 0 0)
(-427.622 0 0)
(-427.622 0 0)
(-427.622 0 0)
(-427.622 0 0)
(-427.622 0 0)
(-427.622 0 0)
(-427.622 0 0)
(-427.622 0 0)
(-427.622 0 0)
(-427.622 0 0)
(-427.622 0 0)
(-427.622 0 0)
(-427.622 0 0)
(-427.622 0 0)
(-427.622 0 0)
(-427.622 0 0)
(-427.622 0 0)
(-427.622 0 0)
(-427.622 0 0)
(-427.622 0 0)
(-427.622 0 0)
(-427.622 0 0)
(-427.622 0 0)
(-427.622 0 0)
(-427.622 0 0)
(-427.623 0 0)
(-427.623 0 0)
(-427.623 0 0)
(-427.625 0 0)
(-427.653 0 0)
(-427.533 0 0)
(-427.69 0 0)
(-301.736 0 0)
(-438.3 0 0)
(-416.908 0 0)
(-421.624 0 0)
(-424.474 0 0)
(-425.896 0 0)
(-426.671 0 0)
(-427.1 0 0)
(-427.336 0 0)
(-427.467 0 0)
(-427.538 0 0)
(-427.577 0 0)
(-427.598 0 0)
(-427.609 0 0)
(-427.615 0 0)
(-427.619 0 0)
(-427.621 0 0)
(-427.621 0 0)
(-427.622 0 0)
(-427.622 0 0)
(-427.622 0 0)
(-427.623 0 0)
(-427.623 0 0)
(-427.623 0 0)
(-427.623 0 0)
(-427.623 0 0)
(-427.623 0 0)
(-427.623 0 0)
(-427.623 0 0)
(-427.623 0 0)
(-427.623 0 0)
(-427.623 0 0)
(-427.623 0 0)
(-427.623 0 0)
(-427.623 0 0)
(-427.623 0 0)
(-427.623 0 0)
(-427.623 0 0)
(-427.623 0 0)
(-427.623 0 0)
(-427.623 0 0)
(-427.623 0 0)
(-427.623 0 0)
(-427.623 0 0)
(-427.623 0 0)
(-427.623 0 0)
(-427.623 0 0)
(-427.623 0 0)
(-427.623 0 0)
(-427.623 0 0)
(-427.623 0 0)
(-427.623 0 0)
(-427.623 0 0)
(-427.623 0 0)
(-427.623 0 0)
(-427.623 0 0)