/*--------------------------------*- C++ -*----------------------------------*\
| =========                 |                                                 |
| \\      /  F ield         | foam-extend: Open Source CFD                    |
|  \\    /   O peration     | Version:     5.0                                |
|   \\  /    A nd           | Web:         http://www.foam-extend.org         |
|    \\/     M anipulation  |                                                 |
\*---------------------------------------------------------------------------*/
FoamFile
{
    version     2.0;
    format      ascii;
    class       surfaceScalarField;
    location    "0.005";
    object      phi;
}
// * * * * * * * * * * * * * * * * * * * * * * * * * * * * * * * * * * * * * //

dimensions      [0 3 -1 0 0 0 0];

internalField   nonuniform List<scalar> 
7860
(
0.00407582
0.000924176
0.00405962
1.62045e-05
0.00410614
-4.65139e-05
0.00413655
-3.04126e-05
0.00415959
-2.30408e-05
0.00417535
-1.57516e-05
0.0041853
-9.95215e-06
0.00419147
-6.17108e-06
0.00419527
-3.80086e-06
0.0041976
-2.32543e-06
0.00419901
-1.41146e-06
0.00419986
-8.49979e-07
0.00420037
-5.07797e-07
0.00420068
-3.01107e-07
0.00420086
-1.77196e-07
0.00420096
-1.03476e-07
0.00420102
-5.98946e-08
0.00420106
-3.42917e-08
0.00420108
-1.93305e-08
0.00420109
-1.06342e-08
0.0042011
-5.60429e-09
0.0042011
-2.70942e-09
0.0042011
-1.05324e-09
0.0042011
-1.11355e-10
0.0042011
4.18654e-10
0.0042011
7.13816e-10
0.0042011
8.73926e-10
0.0042011
9.58531e-10
0.0042011
9.99526e-10
0.0042011
1.01732e-09
0.0042011
1.02138e-09
0.0042011
1.01921e-09
0.0042011
1.01296e-09
0.0042011
1.00589e-09
0.0042011
9.97783e-10
0.0042011
9.90518e-10
0.0042011
9.83099e-10
0.0042011
9.76957e-10
0.0042011
9.70854e-10
0.0042011
9.66066e-10
0.0042011
9.61283e-10
0.0042011
9.57733e-10
0.0042011
9.54088e-10
0.0042011
9.5156e-10
0.0042011
9.48828e-10
0.0042011
9.47104e-10
0.0042011
9.45071e-10
0.0042011
9.43948e-10
0.0042011
9.42429e-10
0.0042011
9.41737e-10
0.0042011
9.40577e-10
0.0042011
9.40175e-10
0.0042011
9.39245e-10
0.0042011
9.39016e-10
0.0042011
9.38207e-10
0.0042011
9.3805e-10
0.0042011
9.37265e-10
0.0042011
9.37086e-10
0.0042011
9.3623e-10
0.0042011
9.35927e-10
0.0042011
9.34894e-10
0.0042011
9.34354e-10
0.0042011
9.33018e-10
0.0042011
9.32102e-10
0.0042011
9.30307e-10
0.0042011
9.2884e-10
0.0042011
9.26392e-10
0.0042011
9.24156e-10
0.0042011
9.20811e-10
0.0042011
9.17535e-10
0.0042011
9.13e-10
0.0042011
9.08365e-10
0.0042011
9.02297e-10
0.0042011
8.9594e-10
0.0042011
8.87973e-10
0.0042011
8.79544e-10
0.0042011
8.69378e-10
0.0042011
8.5869e-10
0.0042011
8.4639e-10
0.0042011
8.33987e-10
0.0042011
8.21027e-10
0.0042011
8.10142e-10
0.0042011
8.03097e-10
0.0042011
8.06608e-10
0.0042011
8.30276e-10
0.0042011
8.95498e-10
0.0042011
1.03983e-09
0.0042011
1.33756e-09
0.0042011
1.92717e-09
0.0042011
3.07628e-09
0.0042011
5.29755e-09
0.00420109
9.5911e-09
0.00420107
1.79161e-08
0.00420104
3.40797e-08
0.00420097
6.49909e-08
0.00420085
1.19939e-07
0.0042008
5.22056e-08
0.00420288
-2.0843e-06
0.00417794
2.49432e-05
2.71408e-05
0.00614621
-0.000222033
0.00668363
-0.000521208
0.0069656
-0.000328488
0.00709831
-0.000163116
0.00716981
-9.45343e-05
0.00721159
-5.75287e-05
0.00723663
-3.49954e-05
0.00725175
-2.12865e-05
0.00726088
-1.29211e-05
0.00726636
-7.80715e-06
0.00726964
-4.68821e-06
0.00727159
-2.79667e-06
0.00727274
-1.65701e-06
0.00727342
-9.75215e-07
0.00727382
-5.7005e-07
0.00727405
-3.30824e-07
0.00727418
-1.90393e-07
0.00727426
-1.08407e-07
0.0072743
-6.07804e-08
0.00727433
-3.32451e-08
0.00727434
-1.73991e-08
0.00727435
-8.32372e-09
0.00727435
-3.15436e-09
0.00727436
-2.28762e-10
0.00727436
1.41171e-09
0.00727436
2.32021e-09
0.00727436
2.81245e-09
0.00727436
3.07054e-09
0.00727436
3.19676e-09
0.00727436
3.25081e-09
0.00727436
3.265e-09
0.00727436
3.25908e-09
0.00727436
3.24264e-09
0.00727436
3.22248e-09
0.00727436
3.20084e-09
0.00727436
3.18038e-09
0.00727436
3.16099e-09
0.00727436
3.14396e-09
0.00727436
3.12845e-09
0.00727436
3.11536e-09
0.00727436
3.10362e-09
0.00727436
3.094e-09
0.00727436
3.0854e-09
0.00727436
3.07857e-09
0.00727436
3.07241e-09
0.00727436
3.0677e-09
0.00727436
3.06336e-09
0.00727436
3.06019e-09
0.00727436
3.05716e-09
0.00727436
3.05508e-09
0.00727436
3.05293e-09
0.00727436
3.05155e-09
0.00727436
3.04996e-09
0.00727436
3.049e-09
0.00727436
3.0477e-09
0.00727436
3.04691e-09
0.00727436
3.04565e-09
0.00727436
3.04478e-09
0.00727436
3.04332e-09
0.00727436
3.04212e-09
0.00727436
3.04018e-09
0.00727436
3.03834e-09
0.00727436
3.03557e-09
0.00727436
3.03269e-09
0.00727436
3.02863e-09
0.00727436
3.02416e-09
0.00727436
3.0182e-09
0.00727436
3.01146e-09
0.00727436
3.0028e-09
0.00727436
2.99288e-09
0.00727436
2.9805e-09
0.00727436
2.96628e-09
0.00727436
2.94895e-09
0.00727436
2.92909e-09
0.00727436
2.90542e-09
0.00727436
2.87849e-09
0.00727436
2.84712e-09
0.00727436
2.81203e-09
0.00727436
2.77245e-09
0.00727436
2.72986e-09
0.00727436
2.68507e-09
0.00727436
2.64249e-09
0.00727436
2.60858e-09
0.00727436
2.59839e-09
0.00727436
2.63863e-09
0.00727436
2.78274e-09
0.00727436
3.13053e-09
0.00727436
3.87455e-09
0.00727436
5.38106e-09
0.00727435
8.35613e-09
0.00727434
1.41674e-08
0.00727433
2.55084e-08
0.0072743
4.77875e-08
0.00727424
9.21525e-08
0.00727413
1.82287e-07
0.00727388
3.70986e-07
0.00727323
6.97978e-07
0.00727091
2.38817e-07
0.00725741
3.8439e-05
3.903e-05
0.00587509
-0.00109712
0.00636693
-0.00101304
0.00664111
-0.00060266
0.00679084
-0.000312842
0.00687495
-0.000178641
0.00692399
-0.000106573
0.00695321
-6.42126e-05
0.00697073
-3.88044e-05
0.00698124
-2.34212e-05
0.00698751
-1.40786e-05
0.00699124
-8.41532e-06
0.00699345
-4.99921e-06
0.00699475
-2.95106e-06
0.00699551
-1.73104e-06
0.00699595
-1.00885e-06
0.0069962
-5.83906e-07
0.00699635
-3.35241e-07
0.00699644
-1.90477e-07
0.00699649
-1.06599e-07
0.00699651
-5.822e-08
0.00699653
-3.04394e-08
0.00699654
-1.45614e-08
0.00699654
-5.53344e-09
0.00699655
-4.33397e-10
0.00699655
2.42257e-09
0.00699655
4.0016e-09
0.00699655
4.85701e-09
0.00699655
5.30495e-09
0.00699655
5.52501e-09
0.00699655
5.61948e-09
0.00699655
5.64585e-09
0.00699655
5.63687e-09
0.00699655
5.61053e-09
0.00699655
5.57712e-09
0.00699655
5.5419e-09
0.00699655
5.50797e-09
0.00699655
5.47654e-09
0.00699655
5.44842e-09
0.00699655
5.42355e-09
0.00699655
5.40203e-09
0.00699655
5.38343e-09
0.00699655
5.36768e-09
0.00699655
5.35426e-09
0.00699655
5.34309e-09
0.00699655
5.33366e-09
0.00699655
5.32594e-09
0.00699655
5.31946e-09
0.00699655
5.31422e-09
0.00699655
5.30983e-09
0.00699655
5.30632e-09
0.00699655
5.30333e-09
0.00699655
5.30094e-09
0.00699655
5.29883e-09
0.00699655
5.2971e-09
0.00699655
5.29543e-09
0.00699655
5.29395e-09
0.00699655
5.29234e-09
0.00699655
5.29073e-09
0.00699655
5.28878e-09
0.00699655
5.28662e-09
0.00699655
5.28389e-09
0.00699655
5.28067e-09
0.00699655
5.27656e-09
0.00699655
5.2716e-09
0.00699655
5.26534e-09
0.00699655
5.25773e-09
0.00699655
5.24824e-09
0.00699655
5.23677e-09
0.00699655
5.22267e-09
0.00699655
5.20574e-09
0.00699655
5.18525e-09
0.00699655
5.16085e-09
0.00699655
5.13175e-09
0.00699655
5.09751e-09
0.00699655
5.05726e-09
0.00699655
5.01055e-09
0.00699655
4.95662e-09
0.00699655
4.8953e-09
0.00699655
4.82645e-09
0.00699655
4.75117e-09
0.00699655
4.67181e-09
0.00699655
4.59423e-09
0.00699655
4.52989e-09
0.00699655
4.50196e-09
0.00699655
4.55476e-09
0.00699655
4.77394e-09
0.00699655
5.32286e-09
0.00699655
6.51422e-09
0.00699655
8.94655e-09
0.00699654
1.37725e-08
0.00699653
2.32304e-08
0.00699652
4.17324e-08
0.00699649
7.81717e-08
0.00699643
1.5106e-07
0.00699631
3.00834e-07
0.00699606
6.23722e-07
0.00699542
1.3424e-06
0.00699246
3.19521e-06
0.00700081
3.00946e-05
2.83007e-05
0.00534563
-0.00144275
0.0055794
-0.00124681
0.00575832
-0.000781581
0.0058815
-0.000436017
0.00595808
-0.000255221
0.00600449
-0.000152978
0.00603253
-9.22492e-05
0.00604943
-5.56937e-05
0.00605956
-3.35522e-05
0.00606561
-2.01238e-05
0.0060692
-1.20017e-05
0.00607132
-7.11427e-06
0.00607256
-4.19113e-06
0.00607328
-2.45389e-06
0.00607371
-1.42773e-06
0.00607395
-8.25106e-07
0.00607409
-4.73095e-07
0.00607417
-2.68497e-07
0.00607422
-1.50124e-07
0.00607424
-8.19401e-08
0.00607426
-4.28346e-08
0.00607427
-2.05083e-08
0.00607427
-7.82664e-09
0.00607428
-6.69005e-10
0.00607428
3.33629e-09
0.00607428
5.54931e-09
0.00607428
6.74794e-09
0.00607428
7.37555e-09
0.00607428
7.68439e-09
0.00607428
7.81737e-09
0.00607428
7.85538e-09
0.00607428
7.84381e-09
0.00607428
7.80818e-09
0.00607428
7.76247e-09
0.00607428
7.7144e-09
0.00607428
7.6679e-09
0.00607428
7.62503e-09
0.00607428
7.58654e-09
0.00607428
7.55269e-09
0.00607428
7.52329e-09
0.00607428
7.49807e-09
0.00607428
7.47657e-09
0.00607428
7.45845e-09
0.00607428
7.44323e-09
0.00607428
7.43057e-09
0.00607428
7.42005e-09
0.00607428
7.4114e-09
0.00607428
7.40426e-09
0.00607428
7.39844e-09
0.00607428
7.39365e-09
0.00607428
7.38974e-09
0.00607428
7.38647e-09
0.00607428
7.38374e-09
0.00607428
7.38135e-09
0.00607428
7.37921e-09
0.00607428
7.37715e-09
0.00607428
7.37509e-09
0.00607428
7.37284e-09
0.00607428
7.37032e-09
0.00607428
7.36731e-09
0.00607428
7.3637e-09
0.00607428
7.35923e-09
0.00607428
7.35371e-09
0.00607428
7.34684e-09
0.00607428
7.33833e-09
0.00607428
7.32778e-09
0.00607428
7.31481e-09
0.00607428
7.29888e-09
0.00607428
7.27949e-09
0.00607428
7.25596e-09
0.00607428
7.22763e-09
0.00607428
7.19368e-09
0.00607428
7.1533e-09
0.00607428
7.10555e-09
0.00607428
7.04954e-09
0.00607428
6.98428e-09
0.00607428
6.90903e-09
0.00607428
6.82317e-09
0.00607428
6.72678e-09
0.00607428
6.62099e-09
0.00607428
6.50923e-09
0.00607428
6.39908e-09
0.00607428
6.30637e-09
0.00607428
6.26216e-09
0.00607428
6.32693e-09
0.00607428
6.61676e-09
0.00607428
7.35399e-09
0.00607428
8.96362e-09
0.00607428
1.22599e-08
0.00607427
1.88093e-08
0.00607426
3.16506e-08
0.00607425
5.67568e-08
0.00607422
1.06112e-07
0.00607417
2.04506e-07
0.00607407
4.05775e-07
0.00607385
8.38247e-07
0.00607335
1.84493e-06
0.00607177
4.77654e-06
0.00607804
2.38206e-05
2.08279e-05
0.0050499
-0.00149264
0.00511638
-0.00131329
0.00521539
-0.000880583
0.00530568
-0.000526305
0.0053689
-0.000318441
0.00540944
-0.000193517
0.00543462
-0.000117426
0.00545
-7.10663e-05
0.00545928
-4.28328e-05
0.00546484
-2.5677e-05
0.00546814
-1.52992e-05
0.00547009
-9.05879e-06
0.00547123
-5.33049e-06
0.0054719
-3.11743e-06
0.00547228
-1.81184e-06
0.00547251
-1.04603e-06
0.00547263
-5.99208e-07
0.00547271
-3.39772e-07
0.00547275
-1.89817e-07
0.00547278
-1.03518e-07
0.00547279
-5.40632e-08
0.0054728
-2.58493e-08
0.0054728
-9.83454e-09
0.0054728
-8.01583e-10
0.0054728
4.24999e-09
0.00547281
7.0394e-09
0.00547281
8.5493e-09
0.00547281
9.33934e-09
0.00547281
9.72779e-09
0.00547281
9.89481e-09
0.00547281
9.94235e-09
0.00547281
9.92756e-09
0.00547281
9.88257e-09
0.00547281
9.82495e-09
0.00547281
9.76444e-09
0.00547281
9.70593e-09
0.00547281
9.65203e-09
0.00547281
9.60364e-09
0.00547281
9.56113e-09
0.00547281
9.5242e-09
0.00547281
9.49256e-09
0.00547281
9.46559e-09
0.00547281
9.44289e-09
0.00547281
9.4238e-09
0.00547281
9.40795e-09
0.00547281
9.39477e-09
0.00547281
9.38396e-09
0.00547281
9.37503e-09
0.00547281
9.36777e-09
0.00547281
9.36177e-09
0.00547281
9.3569e-09
0.00547281
9.35281e-09
0.00547281
9.34942e-09
0.00547281
9.34643e-09
0.00547281
9.34378e-09
0.00547281
9.34119e-09
0.00547281
9.33862e-09
0.00547281
9.3358e-09
0.00547281
9.33264e-09
0.00547281
9.32885e-09
0.00547281
9.32432e-09
0.00547281
9.31867e-09
0.00547281
9.31172e-09
0.00547281
9.30302e-09
0.00547281
9.29228e-09
0.00547281
9.27892e-09
0.00547281
9.26251e-09
0.00547281
9.24233e-09
0.00547281
9.21776e-09
0.00547281
9.18791e-09
0.00547281
9.15199e-09
0.00547281
9.1089e-09
0.00547281
9.05766e-09
0.00547281
8.99701e-09
0.00547281
8.92587e-09
0.00547281
8.84294e-09
0.00547281
8.74728e-09
0.00547281
8.63806e-09
0.00547281
8.51537e-09
0.00547281
8.3805e-09
0.00547281
8.23771e-09
0.00547281
8.0963e-09
0.00547281
7.97582e-09
0.00547281
7.91467e-09
0.00547281
7.98773e-09
0.00547281
8.33867e-09
0.00547281
9.24286e-09
0.0054728
1.12264e-08
0.0054728
1.52969e-08
0.0054728
2.33899e-08
0.00547279
3.92504e-08
0.00547278
7.0206e-08
0.00547276
1.30845e-07
0.00547271
2.50991e-07
0.00547262
4.94459e-07
0.00547245
1.01078e-06
0.00547209
2.20272e-06
0.00547138
5.49067e-06
0.00547619
1.90126e-05
1.5532e-05
0.00490363
-0.00139628
0.00487028
-0.00127993
0.00490835
-0.000918654
0.00496656
-0.000584517
0.00501419
-0.000366065
0.00504707
-0.000226391
0.00506829
-0.000138647
0.00508152
-8.42925e-05
0.0050896
-5.09056e-05
0.00509446
-3.05354e-05
0.00509735
-1.81923e-05
0.00509906
-1.07669e-05
0.00510007
-6.33159e-06
0.00510065
-3.70026e-06
0.00510099
-2.14899e-06
0.00510119
-1.23975e-06
0.0051013
-7.09637e-07
0.00510137
-4.02059e-07
0.0051014
-2.24399e-07
0.00510143
-1.22219e-07
0.00510144
-6.36991e-08
0.00510144
-3.03326e-08
0.00510145
-1.1404e-08
0.00510145
-7.33648e-10
0.00510145
5.22969e-09
0.00510145
8.51999e-09
0.00510145
1.02991e-08
0.00510145
1.12284e-08
0.00510145
1.1684e-08
0.00510145
1.18785e-08
0.00510145
1.19324e-08
0.00510145
1.19129e-08
0.00510145
1.18581e-08
0.00510145
1.17886e-08
0.00510145
1.17159e-08
0.00510145
1.16457e-08
0.00510145
1.15811e-08
0.00510145
1.15232e-08
0.00510145
1.14723e-08
0.00510145
1.14282e-08
0.00510145
1.13903e-08
0.00510145
1.13581e-08
0.00510145
1.13309e-08
0.00510145
1.13081e-08
0.00510145
1.12892e-08
0.00510145
1.12734e-08
0.00510145
1.12605e-08
0.00510145
1.12498e-08
0.00510145
1.12412e-08
0.00510145
1.1234e-08
0.00510145
1.12282e-08
0.00510145
1.12233e-08
0.00510145
1.12192e-08
0.00510145
1.12157e-08
0.00510145
1.12125e-08
0.00510145
1.12094e-08
0.00510145
1.12063e-08
0.00510145
1.12029e-08
0.00510145
1.11992e-08
0.00510145
1.11946e-08
0.00510145
1.11892e-08
0.00510145
1.11824e-08
0.00510145
1.1174e-08
0.00510145
1.11636e-08
0.00510145
1.11506e-08
0.00510145
1.11346e-08
0.00510145
1.11148e-08
0.00510145
1.10905e-08
0.00510145
1.10609e-08
0.00510145
1.1025e-08
0.00510145
1.09817e-08
0.00510145
1.09298e-08
0.00510145
1.08681e-08
0.00510145
1.07951e-08
0.00510145
1.07094e-08
0.00510145
1.06095e-08
0.00510145
1.04942e-08
0.00510145
1.03626e-08
0.00510145
1.02146e-08
0.00510145
1.00517e-08
0.00510145
9.8788e-09
0.00510145
9.70674e-09
0.00510145
9.55821e-09
0.00510145
9.478e-09
0.00510145
9.55335e-09
0.00510145
9.9519e-09
0.00510145
1.09947e-08
0.00510145
1.32951e-08
0.00510145
1.80263e-08
0.00510145
2.74381e-08
0.00510144
4.58692e-08
0.00510143
8.17601e-08
0.00510141
1.51759e-07
0.00510137
2.89434e-07
0.0051013
5.65248e-07
0.00510118
1.13973e-06
0.00510095
2.42654e-06
0.00510077
5.66841e-06
0.00510451
1.52732e-05
1.17161e-05
0.004844
-0.00124028
0.00475603
-0.00119195
0.00475037
-0.000912997
0.00478034
-0.000614483
0.0048122
-0.000397924
0.00483659
-0.000250777
0.00485319
-0.000155242
0.00486384
-9.4937e-05
0.00487044
-5.75064e-05
0.00487445
-3.45426e-05
0.00487685
-2.05898e-05
0.00487827
-1.21857e-05
0.00487911
-7.16388e-06
0.00487959
-4.18483e-06
0.00487988
-2.42913e-06
0.00488004
-1.40052e-06
0.00488013
-8.01103e-07
0.00488019
-4.53489e-07
0.00488022
-2.52804e-07
0.00488024
-1.37437e-07
0.00488025
-7.13956e-08
0.00488025
-3.37588e-08
0.00488026
-1.24186e-08
0.00488026
-3.95935e-10
0.00488026
6.31812e-09
0.00488026
1.00188e-08
0.00488026
1.20165e-08
0.00488026
1.30573e-08
0.00488026
1.35647e-08
0.00488026
1.37787e-08
0.00488026
1.38347e-08
0.00488026
1.38087e-08
0.00488026
1.37432e-08
0.00488026
1.36617e-08
0.00488026
1.35769e-08
0.00488026
1.34954e-08
0.00488026
1.34204e-08
0.00488026
1.33533e-08
0.00488026
1.32944e-08
0.00488026
1.32433e-08
0.00488026
1.31994e-08
0.00488026
1.31621e-08
0.00488026
1.31307e-08
0.00488026
1.31043e-08
0.00488026
1.30824e-08
0.00488026
1.30642e-08
0.00488026
1.30492e-08
0.00488026
1.30369e-08
0.00488026
1.30268e-08
0.00488026
1.30186e-08
0.00488026
1.30118e-08
0.00488026
1.30062e-08
0.00488026
1.30015e-08
0.00488026
1.29973e-08
0.00488026
1.29936e-08
0.00488026
1.29901e-08
0.00488026
1.29865e-08
0.00488026
1.29826e-08
0.00488026
1.29781e-08
0.00488026
1.29729e-08
0.00488026
1.29665e-08
0.00488026
1.29586e-08
0.00488026
1.29489e-08
0.00488026
1.29368e-08
0.00488026
1.29217e-08
0.00488026
1.2903e-08
0.00488026
1.288e-08
0.00488026
1.28518e-08
0.00488026
1.28173e-08
0.00488026
1.27755e-08
0.00488026
1.27252e-08
0.00488026
1.26649e-08
0.00488026
1.25931e-08
0.00488026
1.25081e-08
0.00488026
1.24084e-08
0.00488026
1.22923e-08
0.00488026
1.21582e-08
0.00488026
1.2005e-08
0.00488026
1.18326e-08
0.00488026
1.16426e-08
0.00488026
1.14404e-08
0.00488026
1.1238e-08
0.00488026
1.10606e-08
0.00488026
1.09582e-08
0.00488026
1.10282e-08
0.00488026
1.14578e-08
0.00488026
1.26053e-08
0.00488026
1.51549e-08
0.00488026
2.04138e-08
0.00488025
3.08833e-08
0.00488025
5.13685e-08
0.00488024
9.11591e-08
0.00488023
1.68396e-07
0.0048802
3.19108e-07
0.00488015
6.17304e-07
0.00488006
1.2255e-06
0.00487995
2.53389e-06
0.0048801
5.52152e-06
0.00488304
1.23324e-05
8.92706e-06
0.00483031
-0.00107058
0.00471632
-0.00107797
0.00468069
-0.000877366
0.00468716
-0.000620948
0.00470421
-0.000414967
0.00471994
-0.000266508
0.00473157
-0.000166869
0.00473936
-0.000102722
0.0047443
-6.24486e-05
0.00474735
-3.75827e-05
0.00474918
-2.24217e-05
0.00475027
-1.32738e-05
0.00475091
-7.80322e-06
0.00475129
-4.55713e-06
0.0047515
-2.64418e-06
0.00475163
-1.52371e-06
0.0047517
-8.70961e-07
0.00475174
-4.92557e-07
0.00475177
-2.74177e-07
0.00475178
-1.48687e-07
0.00475179
-7.68793e-08
0.00475179
-3.59739e-08
0.00475179
-1.27922e-08
0.0047518
2.5954e-10
0.0047518
7.54174e-09
0.0047518
1.15502e-08
0.0047518
1.37092e-08
0.0047518
1.48296e-08
0.0047518
1.53716e-08
0.0047518
1.55958e-08
0.0047518
1.56491e-08
0.0047518
1.56142e-08
0.0047518
1.55372e-08
0.0047518
1.54434e-08
0.0047518
1.53467e-08
0.0047518
1.52541e-08
0.0047518
1.51692e-08
0.0047518
1.50932e-08
0.0047518
1.50266e-08
0.0047518
1.49688e-08
0.0047518
1.49192e-08
0.0047518
1.48771e-08
0.0047518
1.48416e-08
0.0047518
1.48118e-08
0.0047518
1.4787e-08
0.0047518
1.47664e-08
0.0047518
1.47495e-08
0.0047518
1.47356e-08
0.0047518
1.47242e-08
0.0047518
1.47149e-08
0.0047518
1.47072e-08
0.0047518
1.47009e-08
0.0047518
1.46955e-08
0.0047518
1.46909e-08
0.0047518
1.46867e-08
0.0047518
1.46826e-08
0.0047518
1.46786e-08
0.0047518
1.46741e-08
0.0047518
1.46691e-08
0.0047518
1.46631e-08
0.0047518
1.46559e-08
0.0047518
1.4647e-08
0.0047518
1.46359e-08
0.0047518
1.46221e-08
0.0047518
1.4605e-08
0.0047518
1.45839e-08
0.0047518
1.45577e-08
0.0047518
1.45257e-08
0.0047518
1.44866e-08
0.0047518
1.44393e-08
0.0047518
1.43821e-08
0.0047518
1.43137e-08
0.0047518
1.42323e-08
0.0047518
1.4136e-08
0.0047518
1.40229e-08
0.0047518
1.38912e-08
0.0047518
1.37391e-08
0.0047518
1.35652e-08
0.0047518
1.33694e-08
0.0047518
1.31533e-08
0.0047518
1.29224e-08
0.0047518
1.26898e-08
0.0047518
1.24824e-08
0.0047518
1.23542e-08
0.0047518
1.24101e-08
0.0047518
1.28519e-08
0.0047518
1.40658e-08
0.0047518
1.67889e-08
0.0047518
2.24272e-08
0.00475179
3.3665e-08
0.00475179
5.56377e-08
0.00475178
9.82085e-08
0.00475177
1.8044e-07
0.00475175
3.3961e-07
0.00475172
6.50472e-07
0.00475168
1.27021e-06
0.00475167
2.54483e-06
0.004752
5.18611e-06
0.00475434
9.99779e-06
6.86193e-06
0.00483839
-0.000908975
0.00471566
-0.000955234
0.00466042
-0.000822118
0.00464804
-0.000608565
0.00465176
-0.000418686
0.0046591
-0.000273846
0.00466566
-0.000173432
0.00467044
-0.0001075
0.00467361
-6.56153e-05
0.00467561
-3.95762e-05
0.00467683
-2.36382e-05
0.00467756
-1.40011e-05
0.00467799
-8.23167e-06
0.00467824
-4.80668e-06
0.00467839
-2.78808e-06
0.00467847
-1.60582e-06
0.00467852
-9.17217e-07
0.00467855
-5.18128e-07
0.00467856
-2.87879e-07
0.00467857
-1.5561e-07
0.00467858
-7.99509e-08
0.00467858
-3.68694e-08
0.00467858
-1.24675e-08
0.00467858
1.26122e-09
0.00467858
8.91274e-09
0.00467858
1.31172e-08
0.00467858
1.53752e-08
0.00467858
1.65407e-08
0.00467858
1.70984e-08
0.00467858
1.73227e-08
0.00467858
1.73682e-08
0.00467858
1.7322e-08
0.00467858
1.72324e-08
0.00467858
1.71261e-08
0.00467858
1.70176e-08
0.00467858
1.69143e-08
0.00467858
1.68198e-08
0.00467858
1.67354e-08
0.00467858
1.66614e-08
0.00467858
1.65973e-08
0.00467858
1.65424e-08
0.00467858
1.64957e-08
0.00467858
1.64563e-08
0.00467858
1.64232e-08
0.00467858
1.63957e-08
0.00467858
1.63729e-08
0.00467858
1.63542e-08
0.00467858
1.63387e-08
0.00467858
1.63261e-08
0.00467858
1.63158e-08
0.00467858
1.63073e-08
0.00467858
1.63002e-08
0.00467858
1.62943e-08
0.00467858
1.62891e-08
0.00467858
1.62845e-08
0.00467858
1.628e-08
0.00467858
1.62754e-08
0.00467858
1.62705e-08
0.00467858
1.62649e-08
0.00467858
1.62583e-08
0.00467858
1.62502e-08
0.00467858
1.62403e-08
0.00467858
1.6228e-08
0.00467858
1.62127e-08
0.00467858
1.61936e-08
0.00467858
1.61701e-08
0.00467858
1.6141e-08
0.00467858
1.61054e-08
0.00467858
1.60619e-08
0.00467858
1.60092e-08
0.00467858
1.59457e-08
0.00467858
1.58696e-08
0.00467858
1.5779e-08
0.00467858
1.5672e-08
0.00467858
1.55462e-08
0.00467858
1.53997e-08
0.00467858
1.52305e-08
0.00467858
1.5037e-08
0.00467858
1.48188e-08
0.00467858
1.45775e-08
0.00467858
1.43187e-08
0.00467858
1.4056e-08
0.00467858
1.38175e-08
0.00467858
1.36595e-08
0.00467858
1.36917e-08
0.00467858
1.41254e-08
0.00467858
1.53646e-08
0.00467858
1.81797e-08
0.00467858
2.40385e-08
0.00467858
3.57358e-08
0.00467858
5.85967e-08
0.00467857
1.0278e-07
0.00467857
1.87719e-07
0.00467856
3.50819e-07
0.00467854
6.65183e-07
0.00467854
1.27724e-06
0.0046786
2.47912e-06
0.00467904
4.74907e-06
0.00468091
8.12882e-06
5.31421e-06
0.00485506
-0.000764033
0.00473337
-0.000833544
0.00466599
-0.000754733
0.00463889
-0.000581468
0.00463098
-0.000410774
0.00463046
-0.000273321
0.00463206
-0.000175023
0.00463379
-0.000109236
0.00463513
-6.69514e-05
0.00463604
-4.04787e-05
0.00463661
-2.42089e-05
0.00463696
-1.43483e-05
0.00463717
-8.4376e-06
0.00463729
-4.9266e-06
0.00463736
-2.8568e-06
0.0046374
-1.64454e-06
0.00463742
-9.38546e-07
0.00463744
-5.29453e-07
0.00463745
-2.93488e-07
0.00463745
-1.57973e-07
0.00463745
-8.04836e-08
0.00463745
-3.63789e-08
0.00463745
-1.14122e-08
0.00463745
2.62212e-09
0.00463746
1.04334e-08
0.00463746
1.47162e-08
0.00463746
1.70075e-08
0.00463746
1.81818e-08
0.00463746
1.87355e-08
0.00463746
1.89494e-08
0.00463746
1.89818e-08
0.00463746
1.89216e-08
0.00463746
1.88185e-08
0.00463746
1.86995e-08
0.00463746
1.85795e-08
0.00463746
1.84658e-08
0.00463746
1.83622e-08
0.00463746
1.82699e-08
0.00463746
1.81889e-08
0.00463746
1.81189e-08
0.00463746
1.80589e-08
0.00463746
1.80079e-08
0.00463746
1.79649e-08
0.00463746
1.79289e-08
0.00463746
1.78988e-08
0.00463746
1.7874e-08
0.00463746
1.78535e-08
0.00463746
1.78366e-08
0.00463746
1.78228e-08
0.00463746
1.78115e-08
0.00463746
1.78022e-08
0.00463746
1.77946e-08
0.00463746
1.77881e-08
0.00463746
1.77824e-08
0.00463746
1.77773e-08
0.00463746
1.77724e-08
0.00463746
1.77675e-08
0.00463746
1.77621e-08
0.00463746
1.77559e-08
0.00463746
1.77487e-08
0.00463746
1.77399e-08
0.00463746
1.7729e-08
0.00463746
1.77155e-08
0.00463746
1.76987e-08
0.00463746
1.76778e-08
0.00463746
1.7652e-08
0.00463746
1.76202e-08
0.00463746
1.75812e-08
0.00463746
1.75336e-08
0.00463746
1.74759e-08
0.00463746
1.74063e-08
0.00463746
1.73231e-08
0.00463746
1.72239e-08
0.00463746
1.71067e-08
0.00463746
1.69691e-08
0.00463746
1.68087e-08
0.00463746
1.66233e-08
0.00463746
1.64113e-08
0.00463746
1.61718e-08
0.00463746
1.59065e-08
0.00463746
1.56208e-08
0.00463746
1.53283e-08
0.00463746
1.50575e-08
0.00463746
1.48657e-08
0.00463746
1.48645e-08
0.00463746
1.5269e-08
0.00463746
1.64905e-08
0.00463746
1.93129e-08
0.00463746
2.5227e-08
0.00463745
3.70645e-08
0.00463745
6.01987e-08
0.00463745
1.04813e-07
0.00463745
1.90192e-07
0.00463745
3.52868e-07
0.00463745
6.6234e-07
0.00463748
1.25071e-06
0.0046376
2.35455e-06
0.00463809
4.26507e-06
0.0046396
6.62003e-06
4.14058e-06
0.00487359
-0.000637619
0.00475804
-0.000717993
0.00468374
-0.000680435
0.0046454
-0.000543129
0.00462757
-0.000392933
0.00461987
-0.000265623
0.00461672
-0.000171875
0.00461548
-0.000107988
0.00461499
-6.64585e-05
0.00461479
-4.02788e-05
0.00461471
-2.41226e-05
0.00461467
-1.43072e-05
0.00461465
-8.41571e-06
0.00461464
-4.91362e-06
0.00461463
-2.84843e-06
0.00461463
-1.63877e-06
0.00461462
-9.34315e-07
0.00461462
-5.26175e-07
0.00461462
-2.90808e-07
0.00461462
-1.55672e-07
0.00461462
-7.84252e-08
0.00461462
-3.44794e-08
0.00461462
-9.61959e-09
0.00461462
4.33992e-09
0.00461462
1.20965e-08
0.00461462
1.63372e-08
0.00461462
1.85947e-08
0.00461462
1.97409e-08
0.00461462
2.02704e-08
0.00461462
2.04633e-08
0.00461462
2.04771e-08
0.00461462
2.04006e-08
0.00461462
2.0283e-08
0.00461462
2.01512e-08
0.00461462
2.00199e-08
0.00461462
1.98964e-08
0.00461462
1.97842e-08
0.00461462
1.96844e-08
0.00461462
1.95971e-08
0.00461462
1.95216e-08
0.00461462
1.94569e-08
0.00461462
1.9402e-08
0.00461462
1.93556e-08
0.00461462
1.93168e-08
0.00461462
1.92844e-08
0.00461462
1.92577e-08
0.00461462
1.92356e-08
0.00461462
1.92174e-08
0.00461462
1.92026e-08
0.00461462
1.91904e-08
0.00461462
1.91804e-08
0.00461462
1.91721e-08
0.00461462
1.91651e-08
0.00461462
1.9159e-08
0.00461462
1.91535e-08
0.00461462
1.91482e-08
0.00461462
1.91428e-08
0.00461462
1.9137e-08
0.00461462
1.91304e-08
0.00461462
1.91226e-08
0.00461462
1.9113e-08
0.00461462
1.91013e-08
0.00461462
1.90867e-08
0.00461462
1.90685e-08
0.00461462
1.9046e-08
0.00461462
1.90181e-08
0.00461462
1.89837e-08
0.00461462
1.89415e-08
0.00461462
1.88901e-08
0.00461462
1.88278e-08
0.00461462
1.87527e-08
0.00461462
1.86627e-08
0.00461462
1.85556e-08
0.00461462
1.8429e-08
0.00461462
1.82804e-08
0.00461462
1.81071e-08
0.00461462
1.79067e-08
0.00461462
1.76774e-08
0.00461462
1.74181e-08
0.00461462
1.713e-08
0.00461462
1.68185e-08
0.00461462
1.64967e-08
0.00461462
1.61927e-08
0.00461462
1.59632e-08
0.00461462
1.59189e-08
0.00461462
1.6273e-08
0.00461462
1.74336e-08
0.00461462
2.01774e-08
0.00461462
2.598e-08
0.00461462
3.76367e-08
0.00461462
6.04304e-08
0.00461462
1.04311e-07
0.00461462
1.87936e-07
0.00461463
3.46102e-07
0.00461465
6.43201e-07
0.00461471
1.1951e-06
0.00461488
2.18621e-06
0.00461537
3.76763e-06
0.0046166
5.39123e-06
3.24004e-06
0.00489089
-0.000528506
0.00478371
-0.000610818
0.00470603
-0.000602753
0.00465926
-0.000496352
0.00463311
-0.000366778
0.00461901
-0.000251521
0.00461145
-0.000164321
0.00460736
-0.000103889
0.00460509
-6.41878e-05
0.00460381
-3.89955e-05
0.00460307
-2.33863e-05
0.00460265
-1.38805e-05
0.0046024
-8.16699e-06
0.00460226
-4.76817e-06
0.00460217
-2.76316e-06
0.00460212
-1.58859e-06
0.0046021
-9.04586e-07
0.00460208
-5.08338e-07
0.00460207
-2.7987e-07
0.00460207
-1.4873e-07
0.00460206
-7.37955e-08
0.00460206
-3.11878e-08
0.00460206
-7.10477e-09
0.00460206
6.40076e-09
0.00460206
1.38888e-08
0.00460206
1.79677e-08
0.00460206
2.01247e-08
0.00460206
2.1206e-08
0.00460206
2.16916e-08
0.00460206
2.18529e-08
0.00460206
2.1843e-08
0.00460206
2.17478e-08
0.00460206
2.16148e-08
0.00460206
2.14703e-08
0.00460206
2.13281e-08
0.00460206
2.11953e-08
0.00460206
2.10751e-08
0.00460206
2.09685e-08
0.00460206
2.08753e-08
0.00460206
2.07948e-08
0.00460206
2.07258e-08
0.00460206
2.06673e-08
0.00460206
2.06179e-08
0.00460206
2.05766e-08
0.00460206
2.05421e-08
0.00460206
2.05136e-08
0.00460206
2.049e-08
0.00460206
2.04707e-08
0.00460206
2.04549e-08
0.00460206
2.04419e-08
0.00460206
2.04312e-08
0.00460206
2.04224e-08
0.00460206
2.04149e-08
0.00460206
2.04084e-08
0.00460206
2.04026e-08
0.00460206
2.03969e-08
0.00460206
2.03912e-08
0.00460206
2.0385e-08
0.00460206
2.03779e-08
0.00460206
2.03695e-08
0.00460206
2.03593e-08
0.00460206
2.03468e-08
0.00460206
2.03312e-08
0.00460206
2.03118e-08
0.00460206
2.02877e-08
0.00460206
2.02579e-08
0.00460206
2.02212e-08
0.00460206
2.01762e-08
0.00460206
2.01213e-08
0.00460206
2.00547e-08
0.00460206
1.99745e-08
0.00460206
1.98784e-08
0.00460206
1.97641e-08
0.00460206
1.96289e-08
0.00460206
1.94702e-08
0.00460206
1.92851e-08
0.00460206
1.9071e-08
0.00460206
1.88257e-08
0.00460206
1.8548e-08
0.00460206
1.82388e-08
0.00460206
1.79027e-08
0.00460206
1.75523e-08
0.00460206
1.72145e-08
0.00460206
1.69439e-08
0.00460206
1.68471e-08
0.00460206
1.71302e-08
0.00460206
1.81873e-08
0.00460206
2.07683e-08
0.00460206
2.62953e-08
0.00460206
3.74565e-08
0.00460206
5.93128e-08
0.00460207
1.0134e-07
0.00460207
1.8114e-07
0.00460209
3.31049e-07
0.00460212
6.09273e-07
0.0046022
1.11484e-06
0.0046024
1.98638e-06
0.0046029
3.27636e-06
0.00460391
4.38062e-06
2.54039e-06
0.00490578
-0.000434289
0.00480753
-0.000512559
0.00472877
-0.00052399
0.00467577
-0.000443356
0.00464276
-0.000333763
0.00462305
-0.000231814
0.0046115
-0.000152762
0.00460474
-9.71347e-05
0.00460079
-6.02345e-05
0.00459847
-3.66763e-05
0.00459711
-2.20243e-05
0.00459632
-1.30811e-05
0.00459585
-7.69855e-06
0.00459558
-4.49423e-06
0.00459542
-2.60324e-06
0.00459533
-1.49531e-06
0.00459527
-8.50108e-07
0.00459524
-4.76375e-07
0.00459523
-2.60929e-07
0.00459522
-1.37298e-07
0.00459521
-6.66839e-08
0.00459521
-2.65592e-08
0.00459521
-3.90323e-09
0.0045952
8.78041e-09
0.0045952
1.57928e-08
0.0045952
1.95936e-08
0.0045952
2.15857e-08
0.0045952
2.25667e-08
0.0045952
2.29891e-08
0.0045952
2.3109e-08
0.0045952
2.30705e-08
0.0045952
2.29543e-08
0.0045952
2.28053e-08
0.0045952
2.26481e-08
0.0045952
2.24955e-08
0.0045952
2.2354e-08
0.0045952
2.22265e-08
0.0045952
2.21136e-08
0.0045952
2.20151e-08
0.0045952
2.19301e-08
0.0045952
2.18574e-08
0.0045952
2.17956e-08
0.0045952
2.17436e-08
0.0045952
2.16999e-08
0.0045952
2.16636e-08
0.0045952
2.16335e-08
0.0045952
2.16087e-08
0.0045952
2.15883e-08
0.0045952
2.15716e-08
0.0045952
2.15579e-08
0.0045952
2.15467e-08
0.0045952
2.15373e-08
0.0045952
2.15295e-08
0.0045952
2.15226e-08
0.0045952
2.15164e-08
0.0045952
2.15105e-08
0.0045952
2.15044e-08
0.0045952
2.14978e-08
0.0045952
2.14903e-08
0.0045952
2.14815e-08
0.0045952
2.14707e-08
0.0045952
2.14574e-08
0.0045952
2.14409e-08
0.0045952
2.14204e-08
0.0045952
2.1395e-08
0.0045952
2.13635e-08
0.0045952
2.13246e-08
0.0045952
2.1277e-08
0.0045952
2.1219e-08
0.0045952
2.11486e-08
0.0045952
2.10639e-08
0.0045952
2.09623e-08
0.0045952
2.08415e-08
0.0045952
2.06986e-08
0.0045952
2.05308e-08
0.0045952