/*--------------------------------*- C++ -*----------------------------------*\
| =========                 |                                                 |
| \\      /  F ield         | foam-extend: Open Source CFD                    |
|  \\    /   O peration     | Version:     5.0                                |
|   \\  /    A nd           | Web:         http://www.foam-extend.org         |
|    \\/     M anipulation  |                                                 |
\*---------------------------------------------------------------------------*/
FoamFile
{
    version     2.0;
    format      ascii;
    class       volVectorField;
    location    "0.005";
    object      U;
}
// * * * * * * * * * * * * * * * * * * * * * * * * * * * * * * * * * * * * * //

dimensions      [0 1 -1 0 0 0 0];

internalField   nonuniform List<vector> 
4000
(
(0.431341 0.0146818 0)
(0.831985 -0.00506879 0)
(0.830069 -0.00314468 0)
(0.828371 -0.00133384 0)
(0.830975 -0.000781597 0)
(0.834042 -0.000500801 0)
(0.836355 -0.000311789 0)
(0.837846 -0.000192457 0)
(0.838775 -0.000117829 0)
(0.839347 -7.17769e-05 0)
(0.839697 -4.33295e-05 0)
(0.839909 -2.5992e-05 0)
(0.840036 -1.5458e-05 0)
(0.840112 -9.1387e-06 0)
(0.840157 -5.36125e-06 0)
(0.840184 -3.12744e-06 0)
(0.840199 -1.81044e-06 0)
(0.840209 -1.04086e-06 0)
(0.840214 -5.92228e-07 0)
(0.840217 -3.32635e-07 0)
(0.840219 -1.8273e-07 0)
(0.84022 -9.67333e-08 0)
(0.84022 -4.75157e-08 0)
(0.840221 -1.9532e-08 0)
(0.840221 -3.69157e-09 0)
(0.840221 5.19926e-09 0)
(0.840221 1.01337e-08 0)
(0.840221 1.28297e-08 0)
(0.840221 1.4254e-08 0)
(0.840221 1.49752e-08 0)
(0.840221 1.52953e-08 0)
(0.840221 1.54075e-08 0)
(0.840221 1.53983e-08 0)
(0.840221 1.53388e-08 0)
(0.840221 1.52462e-08 0)
(0.840221 1.51525e-08 0)
(0.840221 1.50525e-08 0)
(0.840221 1.49654e-08 0)
(0.840221 1.48792e-08 0)
(0.840221 1.48091e-08 0)
(0.840221 1.47405e-08 0)
(0.840221 1.46876e-08 0)
(0.840221 1.46353e-08 0)
(0.840221 1.45971e-08 0)
(0.840221 1.4558e-08 0)
(0.840221 1.45316e-08 0)
(0.840221 1.45028e-08 0)
(0.840221 1.44852e-08 0)
(0.840221 1.44639e-08 0)
(0.840221 1.44527e-08 0)
(0.840221 1.44367e-08 0)
(0.840221 1.44298e-08 0)
(0.840221 1.44171e-08 0)
(0.840221 1.44128e-08 0)
(0.840221 1.44019e-08 0)
(0.840221 1.43986e-08 0)
(0.840221 1.4388e-08 0)
(0.840221 1.43843e-08 0)
(0.840221 1.43726e-08 0)
(0.840221 1.4367e-08 0)
(0.840221 1.43526e-08 0)
(0.840221 1.43433e-08 0)
(0.840221 1.43241e-08 0)
(0.840221 1.4309e-08 0)
(0.840221 1.42828e-08 0)
(0.840221 1.42591e-08 0)
(0.840221 1.42227e-08 0)
(0.840221 1.4187e-08 0)
(0.840221 1.41367e-08 0)
(0.840221 1.40847e-08 0)
(0.840221 1.40157e-08 0)
(0.840221 1.39425e-08 0)
(0.840221 1.38497e-08 0)
(0.840221 1.37496e-08 0)
(0.840221 1.36273e-08 0)
(0.840221 1.34954e-08 0)
(0.840221 1.33399e-08 0)
(0.840221 1.31751e-08 0)
(0.840221 1.29912e-08 0)
(0.840221 1.28095e-08 0)
(0.840221 1.26347e-08 0)
(0.840221 1.25147e-08 0)
(0.840221 1.25058e-08 0)
(0.840221 1.27531e-08 0)
(0.840221 1.34985e-08 0)
(0.840221 1.52397e-08 0)
(0.840221 1.88895e-08 0)
(0.840221 2.62295e-08 0)
(0.840221 4.06251e-08 0)
(0.84022 6.86112e-08 0)
(0.84022 1.22795e-07 0)
(0.840218 2.28142e-07 0)
(0.840216 4.34562e-07 0)
(0.840211 8.44818e-07 0)
(0.840202 1.67442e-06 0)
(0.840187 3.39138e-06 0)
(0.840208 3.97824e-06 0)
(0.841044 -3.1015e-05 0)
(0.838047 0.000638121 0)
(0.832184 0.000673449 0)
(0.636656 0.0268541 0)
(1.33119 -0.00956983 0)
(1.39224 -0.00827962 0)
(1.41544 -0.00427004 0)
(1.42991 -0.00263095 0)
(1.43942 -0.00165914 0)
(1.44551 -0.00102379 0)
(1.44924 -0.000627975 0)
(1.4515 -0.00038385 0)
(1.45286 -0.000233348 0)
(1.45368 -0.000140892 0)
(1.45417 -8.445e-05 0)
(1.45446 -5.02488e-05 0)
(1.45463 -2.96812e-05 0)
(1.45473 -1.74025e-05 0)
(1.45479 -1.01218e-05 0)
(1.45483 -5.83176e-06 0)
(1.45485 -3.31838e-06 0)
(1.45486 -1.85381e-06 0)
(1.45486 -1.00465e-06 0)
(1.45487 -5.14826e-07 0)
(1.45487 -2.33713e-07 0)
(1.45487 -7.33997e-08 0)
(1.45487 1.73803e-08 0)
(1.45487 6.82038e-08 0)
(1.45487 9.62561e-08 0)
(1.45487 1.11306e-07 0)
(1.45487 1.19066e-07 0)
(1.45487 1.22692e-07 0)
(1.45487 1.2409e-07 0)
(1.45487 1.24237e-07 0)
(1.45487 1.23791e-07 0)
(1.45487 1.23016e-07 0)
(1.45487 1.22164e-07 0)
(1.45487 1.21268e-07 0)
(1.45487 1.20447e-07 0)
(1.45487 1.19662e-07 0)
(1.45487 1.18987e-07 0)
(1.45487 1.18361e-07 0)
(1.45487 1.17843e-07 0)
(1.45487 1.17366e-07 0)
(1.45487 1.16985e-07 0)
(1.45487 1.16632e-07 0)
(1.45487 1.16362e-07 0)
(1.45487 1.16106e-07 0)
(1.45487 1.1592e-07 0)
(1.45487 1.15737e-07 0)
(1.45487 1.15613e-07 0)
(1.45487 1.15482e-07 0)
(1.45487 1.15401e-07 0)
(1.45487 1.15306e-07 0)
(1.45487 1.15255e-07 0)
(1.45487 1.15182e-07 0)
(1.45487 1.15147e-07 0)
(1.45487 1.15087e-07 0)
(1.45487 1.15059e-07 0)
(1.45487 1.15e-07 0)
(1.45487 1.14969e-07 0)
(1.45487 1.14902e-07 0)
(1.45487 1.14858e-07 0)
(1.45487 1.14772e-07 0)
(1.45487 1.14703e-07 0)
(1.45487 1.14585e-07 0)
(1.45487 1.14474e-07 0)
(1.45487 1.14305e-07 0)
(1.45487 1.14133e-07 0)
(1.45487 1.1389e-07 0)
(1.45487 1.1363e-07 0)
(1.45487 1.13282e-07 0)
(1.45487 1.129e-07 0)
(1.45487 1.12411e-07 0)
(1.45487 1.11865e-07 0)
(1.45487 1.11188e-07 0)
(1.45487 1.10429e-07 0)
(1.45487 1.09513e-07 0)
(1.45487 1.08488e-07 0)
(1.45487 1.07283e-07 0)
(1.45487 1.05952e-07 0)
(1.45487 1.04439e-07 0)
(1.45487 1.02824e-07 0)
(1.45487 1.01109e-07 0)
(1.45487 9.94761e-08 0)
(1.45487 9.81255e-08 0)
(1.45487 9.76131e-08 0)
(1.45487 9.88491e-08 0)
(1.45487 1.03726e-07 0)
(1.45487 1.15698e-07 0)
(1.45487 1.41481e-07 0)
(1.45487 1.93747e-07 0)
(1.45487 2.96912e-07 0)
(1.45487 4.98041e-07 0)
(1.45487 8.89381e-07 0)
(1.45486 1.65438e-06 0)
(1.45486 3.16324e-06 0)
(1.45484 6.16591e-06 0)
(1.45481 1.21546e-05 0)
(1.4548 1.77337e-05 0)
(1.45597 -5.41681e-05 0)
(1.44924 0.00166507 0)
(1.45223 0.00174848 0)
(0.588566 -0.0372787 0)
(1.27233 -0.0419029 0)
(1.3255 -0.0244651 0)
(1.35218 -0.0121439 0)
(1.36986 -0.00687086 0)
(1.38132 -0.00411356 0)
(1.38851 -0.00248634 0)
(1.39286 -0.00150655 0)
(1.39547 -0.000911608 0)
(1.39704 -0.000549249 0)
(1.39797 -0.000329006 0)
(1.39852 -0.000195821 0)
(1.39885 -0.000115793 0)
(1.39904 -6.80249e-05 0)
(1.39916 -3.96989e-05 0)
(1.39922 -2.30049e-05 0)
(1.39926 -1.32223e-05 0)
(1.39928 -7.51984e-06 0)
(1.39929 -4.21207e-06 0)
(1.3993 -2.30221e-06 0)
(1.3993 -1.20451e-06 0)
(1.39931 -5.76557e-07 0)
(1.39931 -2.19244e-07 0)
(1.39931 -1.72339e-08 0)
(1.39931 9.59604e-08 0)
(1.39931 1.5859e-07 0)
(1.39931 1.92533e-07 0)
(1.39931 2.1032e-07 0)
(1.39931 2.19056e-07 0)
(1.39931 2.22808e-07 0)
(1.39931 2.23846e-07 0)
(1.39931 2.23484e-07 0)
(1.39931 2.22422e-07 0)
(1.39931 2.21085e-07 0)
(1.39931 2.19667e-07 0)
(1.39931 2.18307e-07 0)
(1.39931 2.17039e-07 0)
(1.39931 2.15909e-07 0)
(1.39931 2.14902e-07 0)
(1.39931 2.14036e-07 0)
(1.39931 2.13281e-07 0)
(1.39931 2.12646e-07 0)
(1.39931 2.12098e-07 0)
(1.39931 2.11647e-07 0)
(1.39931 2.1126e-07 0)
(1.39931 2.10948e-07 0)
(1.39931 2.1068e-07 0)
(1.39931 2.10469e-07 0)
(1.39931 2.10285e-07 0)
(1.39931 2.10144e-07 0)
(1.39931 2.10018e-07 0)
(1.39931 2.09922e-07 0)
(1.39931 2.09832e-07 0)
(1.39931 2.09763e-07 0)
(1.39931 2.09691e-07 0)
(1.39931 2.09632e-07 0)
(1.39931 2.09562e-07 0)
(1.39931 2.09499e-07 0)
(1.39931 2.09415e-07 0)
(1.39931 2.0933e-07 0)
(1.39931 2.09215e-07 0)
(1.39931 2.09086e-07 0)
(1.39931 2.08916e-07 0)
(1.39931 2.08717e-07 0)
(1.39931 2.0846e-07 0)
(1.39931 2.08155e-07 0)
(1.39931 2.07769e-07 0)
(1.39931 2.0731e-07 0)
(1.39931 2.06741e-07 0)
(1.39931 2.06064e-07 0)
(1.39931 2.0524e-07 0)
(1.39931 2.04268e-07 0)
(1.39931 2.03102e-07 0)
(1.39931 2.0174e-07 0)
(1.39931 2.00133e-07 0)
(1.39931 1.98279e-07 0)
(1.39931 1.96134e-07 0)
(1.39931 1.93705e-07 0)
(1.39931 1.90976e-07 0)
(1.39931 1.88005e-07 0)
(1.39931 1.84876e-07 0)
(1.39931 1.81841e-07 0)
(1.39931 1.79354e-07 0)
(1.39931 1.78366e-07 0)
(1.39931 1.80662e-07 0)
(1.39931 1.8972e-07 0)
(1.39931 2.1214e-07 0)
(1.39931 2.60579e-07 0)
(1.39931 3.59229e-07 0)
(1.39931 5.54696e-07 0)
(1.39931 9.37474e-07 0)
(1.39931 1.68605e-06 0)
(1.3993 3.16054e-06 0)
(1.39929 6.11152e-06 0)
(1.39928 1.21807e-05 0)
(1.39925 2.52691e-05 0)
(1.39922 5.26324e-05 0)
(1.40064 9.17988e-05 0)
(1.39281 0.00177961 0)
(1.40581 0.00174483 0)
(0.51603 -0.0660677 0)
(1.13149 -0.0583783 0)
(1.1533 -0.0355318 0)
(1.17132 -0.0190278 0)
(1.18672 -0.0109405 0)
(1.19753 -0.00652204 0)
(1.20444 -0.00392601 0)
(1.20864 -0.00236981 0)
(1.21116 -0.00142842 0)
(1.21267 -0.000857438 0)
(1.21357 -0.000511839 0)
(1.2141 -0.000303685 0)
(1.21442 -0.000179062 0)
(1.2146 -0.000104926 0)
(1.21471 -6.10938e-05 0)
(1.21477 -3.5331e-05 0)
(1.21481 -2.02704e-05 0)
(1.21483 -1.15105e-05 0)
(1.21484 -6.43914e-06 0)
(1.21485 -3.51625e-06 0)
(1.21485 -1.839e-06 0)
(1.21485 -8.80941e-07 0)
(1.21485 -3.36508e-07 0)
(1.21485 -2.90965e-08 0)
(1.21486 1.42989e-07 0)
(1.21486 2.38107e-07 0)
(1.21486 2.89639e-07 0)
(1.21486 3.16632e-07 0)
(1.21486 3.29915e-07 0)
(1.21486 3.35637e-07 0)
(1.21486 3.37267e-07 0)
(1.21486 3.36768e-07 0)
(1.21486 3.35227e-07 0)
(1.21486 3.33255e-07 0)
(1.21486 3.31177e-07 0)
(1.21486 3.29171e-07 0)
(1.21486 3.27316e-07 0)
(1.21486 3.25653e-07 0)
(1.21486 3.24187e-07 0)
(1.21486 3.22916e-07 0)
(1.21486 3.21822e-07 0)
(1.21486 3.20892e-07 0)
(1.21486 3.20105e-07 0)
(1.21486 3.19446e-07 0)
(1.21486 3.18895e-07 0)
(1.21486 3.18439e-07 0)
(1.21486 3.18061e-07 0)
(1.21486 3.17753e-07 0)
(1.21486 3.17498e-07 0)
(1.21486 3.17291e-07 0)
(1.21486 3.17119e-07 0)
(1.21486 3.16978e-07 0)
(1.21486 3.16857e-07 0)
(1.21486 3.16754e-07 0)
(1.21486 3.16659e-07 0)
(1.21486 3.16571e-07 0)
(1.21486 3.16479e-07 0)
(1.21486 3.16383e-07 0)
(1.21486 3.16271e-07 0)
(1.21486 3.16142e-07 0)
(1.21486 3.15984e-07 0)
(1.21486 3.15792e-07 0)
(1.21486 3.15552e-07 0)
(1.21486 3.15256e-07 0)
(1.21486 3.14887e-07 0)
(1.21486 3.14434e-07 0)
(1.21486 3.13873e-07 0)
(1.21486 3.13189e-07 0)
(1.21486 3.12352e-07 0)
(1.21486 3.11342e-07 0)
(1.21486 3.10122e-07 0)
(1.21486 3.08665e-07 0)
(1.21486 3.0693e-07 0)
(1.21486 3.04882e-07 0)
(1.21486 3.02477e-07 0)
(1.21486 2.99681e-07 0)
(1.21486 2.96453e-07 0)
(1.21486 2.92777e-07 0)
(1.21486 2.88649e-07 0)
(1.21486 2.84126e-07 0)
(1.21486 2.79353e-07 0)
(1.21486 2.74666e-07 0)
(1.21486 2.70748e-07 0)
(1.21486 2.68959e-07 0)
(1.21486 2.7192e-07 0)
(1.21486 2.84687e-07 0)
(1.21486 3.16917e-07 0)
(1.21486 3.87091e-07 0)
(1.21486 5.306e-07 0)
(1.21485 8.15582e-07 0)
(1.21485 1.37432e-06 0)
(1.21485 2.46735e-06 0)
(1.21485 4.61918e-06 0)
(1.21484 8.92075e-06 0)
(1.21483 1.77595e-05 0)
(1.2148 3.68595e-05 0)
(1.21479 8.06843e-05 0)
(1.21637 0.00020149 0)
(1.20854 0.0013328 0)
(1.22086 0.00121168 0)
(0.475564 -0.0758302 0)
(1.05168 -0.0655412 0)
(1.04972 -0.0423984 0)
(1.05794 -0.0244372 0)
(1.06954 -0.0145014 0)
(1.07885 -0.00873467 0)
(1.08504 -0.00527818 0)
(1.08886 -0.00318866 0)
(1.09117 -0.00192074 0)
(1.09255 -0.00115145 0)
(1.09338 -0.000686272 0)
(1.09387 -0.000406521 0)
(1.09416 -0.000239324 0)
(1.09433 -0.000140031 0)
(1.09443 -8.14242e-05 0)
(1.09448 -4.70307e-05 0)
(1.09452 -2.69536e-05 0)
(1.09454 -1.52913e-05 0)
(1.09455 -8.5477e-06 0)
(1.09455 -4.66527e-06 0)
(1.09456 -2.43962e-06 0)
(1.09456 -1.16946e-06 0)
(1.09456 -4.48255e-07 0)
(1.09456 -4.13253e-08 0)
(1.09456 1.86332e-07 0)
(1.09456 3.12102e-07 0)
(1.09456 3.80225e-07 0)
(1.09456 4.15907e-07 0)
(1.09456 4.33484e-07 0)
(1.09456 4.41073e-07 0)
(1.09456 4.43269e-07 0)
(1.09456 4.4265e-07 0)
(1.09456 4.40662e-07 0)
(1.09456 4.381e-07 0)
(1.09456 4.35401e-07 0)
(1.09456 4.3279e-07 0)
(1.09456 4.30381e-07 0)
(1.09456 4.28219e-07 0)
(1.09456 4.26317e-07 0)
(1.09456 4.24666e-07 0)
(1.09456 4.2325e-07 0)
(1.09456 4.22043e-07 0)
(1.09456 4.21026e-07 0)
(1.09456 4.20172e-07 0)
(1.09456 4.19461e-07 0)
(1.09456 4.18872e-07 0)
(1.09456 4.18387e-07 0)
(1.09456 4.17987e-07 0)
(1.09456 4.17661e-07 0)
(1.09456 4.17393e-07 0)
(1.09456 4.17174e-07 0)
(1.09456 4.16991e-07 0)
(1.09456 4.16838e-07 0)
(1.09456 4.16704e-07 0)
(1.09456 4.16585e-07 0)
(1.09456 4.16469e-07 0)
(1.09456 4.16354e-07 0)
(1.09456 4.16228e-07 0)
(1.09456 4.16086e-07 0)
(1.09456 4.15917e-07 0)
(1.09456 4.15714e-07 0)
(1.09456 4.15463e-07 0)
(1.09456 4.15152e-07 0)
(1.09456 4.14764e-07 0)
(1.09456 4.14285e-07 0)
(1.09456 4.1369e-07 0)
(1.09456 4.12958e-07 0)
(1.09456 4.12059e-07 0)
(1.09456 4.10964e-07 0)
(1.09456 4.09635e-07 0)
(1.09456 4.08034e-07 0)
(1.09456 4.06116e-07 0)
(1.09456 4.03834e-07 0)
(1.09456 4.01134e-07 0)
(1.09456 3.97967e-07 0)
(1.09456 3.94277e-07 0)
(1.09456 3.9002e-07 0)
(1.09456 3.85162e-07 0)
(1.09456 3.79706e-07 0)
(1.09456 3.73715e-07 0)
(1.09456 3.6738e-07 0)
(1.09456 3.61127e-07 0)
(1.09456 3.55839e-07 0)
(1.09456 3.5326e-07 0)
(1.09456 3.56779e-07 0)
(1.09456 3.7291e-07 0)
(1.09456 4.14126e-07 0)
(1.09456 5.0427e-07 0)
(1.09456 6.89018e-07 0)
(1.09456 1.0562e-06 0)
(1.09456 1.77599e-06 0)
(1.09456 3.1823e-06 0)
(1.09455 5.94296e-06 0)
(1.09455 1.14333e-05 0)
(1.09454 2.26243e-05 0)
(1.09451 4.65453e-05 0)
(1.09452 0.00010201 0)
(1.09621 0.000258048 0)
(1.08836 0.00106549 0)
(1.10023 0.000902917 0)
(0.455637 -0.0734011 0)
(1.0115 -0.0657443 0)
(0.992932 -0.0456292 0)
(0.992148 -0.028138 0)
(0.999494 -0.0172948 0)
(1.00684 -0.010588 0)
(1.01204 -0.00644903 0)
(1.01531 -0.00390986 0)
(1.01731 -0.00235811 0)
(1.01853 -0.00141374 0)
(1.01925 -0.000842168 0)
(1.01968 -0.000498475 0)
(1.01994 -0.000293195 0)
(1.02009 -0.000171393 0)
(1.02017 -9.95696e-05 0)
(1.02022 -5.74607e-05 0)
(1.02025 -3.29028e-05 0)
(1.02027 -1.86501e-05 0)
(1.02028 -1.04155e-05 0)
(1.02028 -5.67822e-06 0)
(1.02029 -2.96443e-06 0)
(1.02029 -1.41672e-06 0)
(1.02029 -5.38481e-07 0)
(1.02029 -4.32577e-08 0)
(1.02029 2.33614e-07 0)
(1.02029 3.86461e-07 0)
(1.02029 4.69174e-07 0)
(1.02029 5.12441e-07 0)
(1.02029 5.33708e-07 0)
(1.02029 5.42847e-07 0)
(1.02029 5.45443e-07 0)
(1.02029 5.44628e-07 0)
(1.02029 5.42161e-07 0)
(1.02029 5.39003e-07 0)
(1.02029 5.35687e-07 0)
(1.02029 5.32483e-07 0)
(1.02029 5.2953e-07 0)
(1.02029 5.26881e-07 0)
(1.02029 5.24553e-07 0)
(1.02029 5.22531e-07 0)
(1.02029 5.20799e-07 0)
(1.02029 5.19323e-07 0)
(1.02029 5.1808e-07 0)
(1.02029 5.17035e-07 0)
(1.02029 5.16168e-07 0)
(1.02029 5.15447e-07 0)
(1.02029 5.14855e-07 0)
(1.02029 5.14367e-07 0)
(1.02029 5.13969e-07 0)
(1.02029 5.13642e-07 0)
(1.02029 5.13375e-07 0)
(1.02029 5.13152e-07 0)
(1.02029 5.12966e-07 0)
(1.02029 5.12803e-07 0)
(1.02029 5.12657e-07 0)
(1.02029 5.12516e-07 0)
(1.02029 5.12375e-07 0)
(1.02029 5.12221e-07 0)
(1.02029 5.12047e-07 0)
(1.02029 5.1184e-07 0)
(1.02029 5.11591e-07 0)
(1.02029 5.11281e-07 0)
(1.02029 5.10899e-07 0)
(1.02029 5.10422e-07 0)
(1.02029 5.09832e-07 0)
(1.02029 5.09098e-07 0)
(1.02029 5.08196e-07 0)
(1.02029 5.07087e-07 0)
(1.02029 5.05737e-07 0)
(1.02029 5.04097e-07 0)
(1.02029 5.02122e-07 0)
(1.02029 4.99754e-07 0)
(1.02029 4.96937e-07 0)
(1.02029 4.93604e-07 0)
(1.02029 4.89693e-07 0)
(1.02029 4.85135e-07 0)
(1.02029 4.79875e-07 0)
(1.02029 4.73869e-07 0)
(1.02029 4.67121e-07 0)
(1.02029 4.59699e-07 0)
(1.02029 4.51832e-07 0)
(1.02029 4.44026e-07 0)
(1.02029 4.37339e-07 0)
(1.02029 4.33857e-07 0)
(1.02029 4.37641e-07 0)
(1.02029 4.56495e-07 0)
(1.02029 5.05367e-07 0)
(1.02029 6.12822e-07 0)
(1.02029 8.33533e-07 0)
(1.02029 1.27246e-06 0)
(1.02029 2.13236e-06 0)
(1.02029 3.80898e-06 0)
(1.02028 7.08689e-06 0)
(1.02028 1.35602e-05 0)
(1.02027 2.66095e-05 0)
(1.02025 5.40355e-05 0)
(1.02028 0.000116291 0)
(1.02205 0.000279596 0)
(1.01415 0.000853487 0)
(1.02572 0.000677299 0)
(0.447434 -0.0662968 0)
(0.994638 -0.0622577 0)
(0.965239 -0.0462576 0)
(0.956916 -0.0303005 0)
(0.960087 -0.0192839 0)
(0.965292 -0.012028 0)
(0.969331 -0.00740113 0)
(0.971955 -0.00451091 0)
(0.973589 -0.00272752 0)
(0.974588 -0.00163688 0)
(0.975189 -0.000975302 0)
(0.975547 -0.000577146 0)
(0.975758 -0.000339314 0)
(0.975882 -0.000198239 0)
(0.975954 -0.000115093 0)
(0.975996 -6.63743e-05 0)
(0.97602 -3.79791e-05 0)
(0.976034 -2.15093e-05 0)
(0.976041 -1.19992e-05 0)
(0.976046 -6.5312e-06 0)
(0.976048 -3.40049e-06 0)
(0.97605 -1.61595e-06 0)
(0.976051 -6.03868e-07 0)
(0.976051 -3.35094e-08 0)
(0.976051 2.85144e-07 0)
(0.976052 4.60893e-07 0)
(0.976052 5.55869e-07 0)
(0.976052 6.05441e-07 0)
(0.976052 6.29702e-07 0)
(0.976052 6.40025e-07 0)
(0.976052 6.42838e-07 0)
(0.976052 6.41745e-07 0)
(0.976052 6.38766e-07 0)
(0.976052 6.35012e-07 0)
(0.976052 6.31089e-07 0)
(0.976052 6.27309e-07 0)
(0.976052 6.2383e-07 0)
(0.976052 6.20713e-07 0)
(0.976052 6.17974e-07 0)
(0.976052 6.15597e-07 0)
(0.976052 6.13559e-07 0)
(0.976052 6.11825e-07 0)
(0.976052 6.10363e-07 0)
(0.976052 6.09136e-07 0)
(0.976052 6.08116e-07 0)
(0.976052 6.0727e-07 0)
(0.976052 6.06574e-07 0)
(0.976052 6.06001e-07 0)
(0.976052 6.05533e-07 0)
(0.976052 6.05149e-07 0)
(0.976052 6.04835e-07 0)
(0.976052 6.04573e-07 0)
(0.976052 6.04354e-07 0)
(0.976052 6.04162e-07 0)
(0.976052 6.03991e-07 0)
(0.976052 6.03825e-07 0)
(0.976052 6.03659e-07 0)
(0.976052 6.03477e-07 0)
(0.976052 6.03272e-07 0)
(0.976052 6.03028e-07 0)
(0.976052 6.02733e-07 0)
(0.976052 6.02367e-07 0)
(0.976052 6.01916e-07 0)
(0.976052 6.01352e-07 0)
(0.976052 6.00653e-07 0)
(0.976052 5.99787e-07 0)
(0.976052 5.9872e-07 0)
(0.976052 5.97409e-07 0)
(0.976052 5.95812e-07 0)
(0.976052 5.93873e-07 0)
(0.976052 5.91537e-07 0)
(0.976052 5.88738e-07 0)
(0.976052 5.85406e-07 0)
(0.976052 5.81465e-07 0)
(0.976052 5.7684e-07 0)
(0.976052 5.7145e-07 0)
(0.976052 5.65228e-07 0)
(0.976052 5.58122e-07 0)
(0.976052 5.50129e-07 0)
(0.976052 5.41328e-07 0)
(0.976052 5.31975e-07 0)
(0.976052 5.22642e-07 0)
(0.976052 5.14531e-07 0)
(0.976052 5.10018e-07 0)
(0.976052 5.1373e-07 0)
(0.976052 5.34557e-07 0)
(0.976052 5.89529e-07 0)
(0.976052 7.11172e-07 0)
(0.976052 9.6167e-07 0)
(0.976051 1.46016e-06 0)
(0.976051 2.43596e-06 0)
(0.976049 4.33394e-06 0)
(0.976047 8.02741e-06 0)
(0.976043 1.52646e-05 0)
(0.976035 2.96749e-05 0)
(0.976024 5.93596e-05 0)
(0.976063 0.000124394 0)
(0.977883 0.000279982 0)
(0.969945 0.000687681 0)
(0.981311 0.000513589 0)
(0.445334 -0.0577973 0)
(0.990422 -0.0569271 0)
(0.954423 -0.0450759 0)
(0.940129 -0.0311586 0)
(0.939491 -0.0204965 0)
(0.942545 -0.0130329 0)
(0.945353 -0.00811015 0)
(0.947264 -0.00497434 0)
(0.948482 -0.00301786 0)
(0.949238 -0.00181414 0)
(0.949697 -0.00108168 0)
(0.949971 -0.000640194 0)
(0.950134 -0.00037632 0)
(0.950229 -0.000219784 0)
(0.950284 -0.000127543 0)
(0.950316 -7.35129e-05 0)
(0.950335 -4.20346e-05 0)
(0.950345 -2.37844e-05 0)
(0.950352 -1.32508e-05 0)
(0.950355 -7.19693e-06 0)
(0.950357 -3.73228e-06 0)
(0.950358 -1.75828e-06 0)
(0.950359 -6.39321e-07 0)
(0.950359 -9.11855e-09 0)
(0.950359 3.42679e-07 0)
(0.950359 5.36478e-07 0)
(0.950359 6.41007e-07 0)
(0.95036 6.95386e-07 0)
(0.95036 7.21825e-07 0)
(0.95036 7.32899e-07 0)
(0.95036 7.35705e-07 0)
(0.95036 7.34228e-07 0)
(0.95036 7.30697e-07 0)
(0.95036 7.26338e-07 0)
(0.95036 7.21815e-07 0)
(0.95036 7.17476e-07 0)
(0.95036 7.13489e-07 0)
(0.95036 7.0992e-07 0)
(0.95036 7.06787e-07 0)
(0.95036 7.0407e-07 0)
(0.95036 7.0174e-07 0)
(0.95036 6.99759e-07 0)
(0.95036 6.98087e-07 0)
(0.95036 6.96686e-07 0)
(0.95036 6.9552e-07 0)
(0.95036 6.94553e-07 0)
(0.95036 6.93757e-07 0)
(0.95036 6.93102e-07 0)
(0.95036 6.92567e-07 0)
(0.95036 6.92129e-07 0)
(0.95036 6.91769e-07 0)
(0.95036 6.9147e-07 0)
(0.95036 6.91219e-07 0)
(0.95036 6.91e-07 0)
(0.95036 6.90803e-07 0)
(0.95036 6.90614e-07 0)
(0.95036 6.90423e-07 0)
(0.95036 6.90215e-07 0)
(0.95036 6.89979e-07 0)
(0.95036 6.89699e-07 0)
(0.95036 6.8936e-07 0)
(0.95036 6.88941e-07 0)
(0.95036 6.88422e-07 0)
(0.95036 6.87775e-07 0)
(0.95036 6.86972e-07 0)
(0.95036 6.85978e-07 0)
(0.95036 6.84752e-07 0)
(0.95036 6.83248e-07 0)
(0.95036 6.81413e-07 0)
(0.95036 6.79188e-07 0)
(0.95036 6.76507e-07 0)
(0.95036 6.73294e-07 0)
(0.95036 6.6947e-07 0)
(0.95036 6.64948e-07 0)
(0.95036 6.59639e-07 0)
(0.95036 6.53453e-07 0)
(0.95036 6.46309e-07 0)
(0.95036 6.38149e-07 0)
(0.95036 6.28961e-07 0)
(0.95036 6.1883e-07 0)
(0.95036 6.08027e-07 0)
(0.95036 5.9718e-07 0)
(0.95036 5.876e-07 0)
(0.95036 5.81891e-07 0)
(0.95036 5.85121e-07 0)
(0.95036 6.07038e-07 0)
(0.95036 6.66305e-07 0)
(0.950359 7.98549e-07 0)
(0.950359 1.07179e-06 0)
(0.950359 1.61604e-06 0)
(0.950359 2.68058e-06 0)
(0.950358 4.74583e-06 0)
(0.950356 8.74527e-06 0)
(0.950353 1.65186e-05 0)
(0.950348 3.17972e-05 0)
(0.950343 6.25824e-05 0)
(0.950396 0.000127231 0)
(0.952248 0.000267731 0)
(0.944271 0.000556479 0)
(0.955489 0.000392998 0)
(0.446071 -0.0493484 0)
(0.99241 -0.0508434 0)
(0.952767 -0.0426895 0)
(0.93393 -0.0309577 0)
(0.929965 -0.0209991 0)
(0.930965 -0.0136068 0)
(0.932532 -0.00856576 0)
(0.933698 -0.00528975 0)
(0.934474 -0.00322164 0)
(0.934968 -0.00194068 0)
(0.935272 -0.00115832 0)
(0.935455 -0.000685834 0)
(0.935564 -0.000403164 0)
(0.935629 -0.000235416 0)
(0.935666 -0.000136566 0)
(0.935687 -7.86733e-05 0)
(0.9357 -4.49533e-05 0)
(0.935707 -2.54093e-05 0)
(0.935711 -1.41328e-05 0)
(0.935713 -7.65418e-06 0)
(0.935715 -3.94785e-06 0)
(0.935715 -1.83704e-06 0)
(0.935716 -6.41147e-07 0)
(0.935716 3.19243e-08 0)
(0.935716 4.07281e-07 0)
(0.935716 6.13742e-07 0)
(0.935716 7.24817e-07 0)
(0.935716 7.82338e-07 0)
(0.935716 8.10047e-07 0)
(0.935716 8.21386e-07 0)
(0.935716 8.23936e-07 0)
(0.935716 8.21958e-07 0)
(0.935716 8.17825e-07 0)
(0.935716 8.12848e-07 0)
(0.935716 8.07734e-07 0)
(0.935716 8.02851e-07 0)
(0.935716 7.98375e-07 0)
(0.935716 7.94376e-07 0)
(0.935716 7.90866e-07 0)
(0.935716 7.87825e-07 0)
(0.935716 7.85218e-07 0)
(0.935716 7.83001e-07 0)
(0.935716 7.81131e-07 0)
(0.935716 7.79564e-07 0)
(0.935716 7.78258e-07 0)
(0.935716 7.77177e-07 0)
(0.935716 7.76286e-07 0)
(0.935716 7.75554e-07 0)
(0.935716 7.74955e-07 0)
(0.935716 7.74464e-07 0)
(0.935716 7.74061e-07 0)
(0.935716 7.73727e-07 0)
(0.935716 7.73445e-07 0)
(0.935716 7.73201e-07 0)
(0.935716 7.72979e-07 0)
(0.935716 7.72768e-07 0)
(0.935716 7.72553e-07 0)
(0.935716 7.7232e-07 0)
(0.935716 7.72054e-07 0)
(0.935716 7.7174e-07 0)
(0.935716 7.71359e-07 0)
(0.935716 7.70889e-07 0)
(0.935716 7.70305e-07 0)
(0.935716 7.69579e-07 0)
(0.935716 7.68677e-07 0)
(0.935716 7.6756e-07 0)
(0.935716 7.66183e-07 0)
(0.935716 7.64494e-07 0)
(0.935716 7.62434e-07 0)
(0.935716 7.59937e-07 0)
(0.935716 7.56926e-07 0)
(0.935716 7.5332e-07 0)
(0.935716 7.49027e-07 0)
(0.935716 7.43952e-07 0)
(0.935716 7.37992e-07 0)
(0.935716 7.31048e-07 0)
(0.935716 7.23027e-07 0)
(0.935716 7.1386e-07 0)
(0.935716 7.03528e-07 0)
(0.935716 6.92114e-07 0)
(0.935716 6.79901e-07 0)
(0.935716 6.67549e-07 0)
(0.935716 6.56443e-07 0)
(0.935716 6.49347e-07 0)
(0.935716 6.51638e-07 0)
(0.935716 6.73666e-07 0)
(0.935716 7.3524e-07 0)
(0.935716 8.74147e-07 0)
(0.935716 1.16243e-06 0)
(0.935716 1.73744e-06 0)
(0.935716 2.86149e-06 0)
(0.935715 5.03666e-06 0)
(0.935714 9.22845e-06 0)
(0.935713 1.73096e-05 0)
(0.935711 3.29845e-05 0)
(0.935711 6.38418e-05 0)
(0.935776 0.000125778 0)
(0.937649 0.000248321 0)
(0.929636 0.000451837 0)
(0.940745 0.00030315 0)
(0.447898 -0.0416284 0)
(0.996996 -0.0446454 0)
(0.955667 -0.0395414 0)
(0.933488 -0.0299229 0)
(0.926704 -0.0208751 0)
(0.92581 -0.0137713 0)
(0.926172 -0.0087685 0)
(0.926591 -0.0054528 0)
(0.926913 -0.00333461 0)
(0.927134 -0.00201341 0)
(0.927276 -0.00120323 0)
(0.927364 -0.000712835 0)
(0.927417 -0.000419107 0)
(0.927448 -0.000244702 0)
(0.927467 -0.000141909 0)
(0.927477 -8.17102e-05 0)
(0.927483 -4.66521e-05 0)
(0.927487 -2.6337e-05 0)
(0.927489 -1.46185e-05 0)
(0.92749 -7.88808e-06 0)
(0.92749 -4.039e-06 0)
(0.927491 -1.84781e-06 0)
(0.927491 -6.07074e-07 0)
(0.927491 9.06856e-08 0)
(0.927491 4.7934e-07 0)
(0.927491 6.927e-07 0)
(0.927491 8.07105e-07 0)
(0.927491 8.65988e-07 0)
(0.927491 8.93998e-07 0)
(0.927491 9.05085e-07 0)
(0.927491 9.07116e-07 0)
(0.927491 9.04509e-07 0)
(0.927491 8.99725e-07 0)
(0.927491 8.9412e-07 0)
(0.927491 8.88424e-07 0)
(0.927491 8.83015e-07 0)
(0.927491 8.78071e-07 0)
(0.927491 8.73663e-07 0)
(0.927491 8.69798e-07 0)
(0.927491 8.66452e-07 0)
(0.927491 8.63583e-07 0)
(0.927491 8.61145e-07 0)
(0.927491 8.59089e-07 0)
(0.927491 8.57365e-07 0)
(0.927491 8.55929e-07 0)
(0.927491 8.5474e-07 0)
(0.927491 8.5376e-07 0)
(0.927491 8.52955e-07 0)
(0.927491 8.52296e-07 0)
(0.927491 8.51756e-07 0)
(0.927491 8.51312e-07 0)
(0.927491 8.50945e-07 0)
(0.927491 8.50634e-07 0)
(0.927491 8.50365e-07 0)
(0.927491 8.50121e-07 0)
(0.927491 8.49888e-07 0)
(0.927491 8.4965e-07 0)
(0.927491 8.49394e-07 0)
(0.927491 8.49101e-07 0)
(0.927491 8.48754e-07 0)
(0.927491 8.48333e-07 0)
(0.927491 8.47814e-07 0)
(0.927491 8.47169e-07 0)
(0.927491 8.46368e-07 0)
(0.927491 8.45373e-07 0)
(0.927491 8.4414e-07 0)
(0.927491 8.42621e-07 0)
(0.927491 8.40758e-07 0)
(0.927491 8.38485e-07 0)
(0.927491 8.3573e-07 0)
(0.927491 8.32409e-07 0)
(0.927491 8.28431e-07 0)
(0.927491 8.23697e-07 0)
(0.927491 8.18099e-07 0)
(0.927491 8.11526e-07 0)
(0.927491 8.03867e-07 0)
(0.927491 7.95016e-07 0)
(0.927491 7.84894e-07 0)
(0.927491 7.73474e-07 0)
(0.927491 7.60832e-07 0)
(0.927491 7.47251e-07 0)
(0.927491 7.33405e-07 0)
(0.927491 7.20717e-07 0)
(0.927491 7.12034e-07 0)
(0.927491 7.12903e-07 0)
(0.927491 7.34006e-07 0)
(0.927491 7.9578e-07 0)
(0.927491 9.37184e-07 0)
(0.927491 1.23238e-06 0)
(0.927491 1.82243e-06 0)
(0.927491 2.97553e-06 0)
(0.927491 5.20173e-06 0)
(0.92749 9.47168e-06 0)
(0.92749 1.76383e-05 0)
(0.927491 3.32709e-05 0)
(0.927496 6.33251e-05 0)
(0.927571 0.000120961 0)
(0.929456 0.000225246 0)
(0.921412 0.0003677 0)
(0.932441 0.000235431 0)
(0.449956 -0.0348415 0)
(1.00228 -0.0386749 0)
(0.96051 -0.0359429 0)
(0.935944 -0.0282462 0)
(0.926828 -0.0202116 0)
(0.924233 -0.013558 0)
(0.923458 -0.00872692 0)
(0.923149 -0.0054642 0)
(0.92302 -0.00335551 0)
(0.922966 -0.00203097 0)
(0.922944 -0.00121536 0)
(0.922935 -0.000720515 0)
(0.92293 -0.000423727 0)
(0.922927 -0.000247387 0)
(0.922926 -0.000143425 0)
(0.922925 -8.25379e-05 0)
(0.922925 -4.70818e-05 0)
(0.922924 -2.65395e-05 0)
(0.922924 -1.46926e-05 0)
(0.922924 -7.89015e-06 0)
(0.922924 -4.00121e-06 0)
(0.922924 -1.78833e-06 0)
(0.922924 -5.36091e-07 0)
(0.922924 1.67468e-07 0)
(0.922924 5.58766e-07 0)
(0.922924 7.73044e-07 0)
(0.922924 8.87443e-07 0)
(0.922924 9.45847e-07 0)
(0.922924 9.73156e-07 0)
(0.922924 9.83459e-07 0)
(0.922924 9.847e-07 0)
(0.922924 9.81338e-07 0)
(0.922924 9.75854e-07 0)
(0.922924 9.69613e-07 0)
(0.922924 9.63348e-07 0)
(0.922924 9.57435e-07 0)
(0.922924 9.5205e-07 0)
(0.922924 9.47258e-07 0)
(0.922924 9.4306e-07 0)
(0.922924 9.39429e-07 0)
(0.922924 9.36318e-07 0)
(0.922924 9.33674e-07 0)
(0.922924 9.31444e-07 0)
(0.922924 9.29576e-07 0)
(0.922924 9.28019e-07 0)
(0.922924 9.2673e-07 0)
(0.922924 9.25667e-07 0)
(0.922924 9.24794e-07 0)
(0.922924 9.24079e-07 0)
(0.922924 9.23494e-07 0)
(0.922924 9.23012e-07 0)
(0.922924 9.22613e-07 0)
(0.922924 9.22276e-07 0)
(0.922924 9.21984e-07 0)
(0.922924 9.21719e-07 0)
(0.922924 9.21466e-07 0)
(0.922924 9.21208e-07 0)
(0.922924 9.20928e-07 0)
(0.922924 9.2061e-07 0)
(0.922924 9.20233e-07 0)
(0.922924 9.19774e-07 0)
(0.922924 9.1921e-07 0)
(0.922924 9.18509e-07 0)
(0.922924 9.17637e-07 0)
(0.922924 9.16554e-07 0)
(0.922924 9.15214e-07 0)
(0.922924 9.13562e-07 0)
(0.922924 9.11536e-07 0)
(0.922924 9.09064e-07 0)
(0.922924 9.06069e-07 0)
(0.922924 9.02458e-07 0)
(0.922924 8.98135e-07 0)
(0.922924 8.92988e-07 0)
(0.922924 8.86904e-07 0)
(0.922924 8.79758e-07 0)
(0.922924 8.71429e-07 0)
(0.922924 8.61802e-07 0)
(0.922924 8.50786e-07 0)
(0.922924 8.3834e-07 0)
(0.922924 8.24532e-07 0)
(0.922924 8.09633e-07 0)
(0.922924 7.94313e-07 0)
(0.922924 7.79992e-07 0)
(0.922924 7.69525e-07 0)
(0.922924 7.68482e-07 0)
(0.922924 7.87602e-07 0)
(0.922924 8.47416e-07 0)
(0.922924 9.87043e-07 0)
(0.922924 1.28084e-06 0)
(0.922924 1.86986e-06 0)
(0.922924 3.02123e-06 0)
(0.922924 5.23965e-06 0)
(0.922925 9.47598e-06 0)
(0.922926 1.75168e-05 0)
(0.922929 3.27111e-05 0)
(0.922939 6.12469e-05 0)
(0.923021 0.000113597 0)
(0.924914 0.000200688 0)
(0.916843 0.000299483 0)
(0.927811 0.000183799 0)
(0.451862 -0.0289733 0)
(1.00735 -0.0330953 0)
(0.965878 -0.032105 0)
(0.939656 -0.0260859 0)
(0.928648 -0.0190929 0)
(0.924558 -0.0130041 0)
(0.922737 -0.00845552 0)
(0.921738 -0.00532888 0)
(0.921172 -0.0032857 0)
(0.92085 -0.00199356 0)
(0.920666 -0.00119464 0)
(0.920559 -0.000708737 0)
(0.920498 -0.000416917 0)
(0.920461 -0.000243402 0)
(0.92044 -0.00014107 0)
(0.920428 -8.1131e-05 0)
(0.920421 -4.62284e-05 0)
(0.920417 -2.60091e-05 0)
(0.920415 -1.43508e-05 0)
(0.920413 -7.65836e-06 0)
(0.920413 -3.83366e-06 0)
(0.920412 -1.65841e-06 0)
(0.920412 -4.28384e-07 0)
(0.920412 2.61891e-07 0)
(0.920412 6.4507e-07 0)
(0.920412 8.5423e-07 0)
(0.920412 9.65262e-07 0)
(0.920412 1.02134e-06 0)
(0.920412 1.04694e-06 0)
(0.920412 1.05593e-06 0)
(0.920412 1.05611e-06 0)
(0.920412 1.05187e-06 0)
(0.920412 1.04564e-06 0)
(0.920412 1.03876e-06 0)
(0.920412 1.03195e-06 0)
(0.920412 1.02556e-06 0)
(0.920412 1.01976e-06 0)
(0.920412 1.01461e-06 0)
(0.920412 1.0101e-06 0)
(0.920412 1.00621e-06 0)
(0.920412 1.00288e-06 0)
(0.920412 1.00004e-06 0)
(0.920412 9.97656e-07 0)
(0.920412 9.95655e-07 0)
(0.920412 9.93987e-07 0)
(0.920412 9.92607e-07 0)
(0.920412 9.91468e-07 0)
(0.920412 9.90533e-07 0)
(0.920412 9.89767e-07 0)
(0.920412 9.8914e-07 0)
(0.920412 9.88624e-07 0)
(0.920412 9.88197e-07 0)
(0.920412 9.87835e-07 0)
(0.920412 9.87522e-07 0)
(0.920412 9.87238e-07 0)
(0.920412 9.86966e-07 0)
(0.920412 9.86688e-07 0)
(0.920412 9.86388e-07 0)
(0.920412 9.86046e-07 0)
(0.920412 9.85641e-07 0)
(0.920412 9.85149e-07 0)
(0.920412 9.84542e-07 0)
(0.920412 9.83789e-07 0)
(0.920412 9.82853e-07 0)
(0.920412 9.81689e-07 0)
(0.920412 9.8025e-07 0)
(0.920412 9.78475e-07 0)
(0.920412 9.76299e-07 0)
(0.920412 9.73645e-07 0)
(0.920412 9.70428e-07 0)
(0.920412 9.66552e-07 0)
(0.920412 9.61909e-07 0)
(0.920412 9.56383e-07 0)
(0.920412 9.4985e-07 0)
(0.920412 9.42177e-07 0)
(0.920412 9.33232e-07 0)
(0.920412 9.22889e-07 0)
(0.920412 9.11043e-07 0)
(0.920412 8.97643e-07 0)
(0.920412 8.82739e-07 0)
(0.920412 8.66583e-07 0)
(0.920412 8.49818e-07 0)
(0.920412 8.33825e-07 0)
(0.920412 8.21388e-07 0)
(0.920412 8.17958e-07 0)
(0.920412 8.34046e-07 0)
(0.920412 8.8975e-07 0)
(0.920412 1.02334e-06 0)
(0.920412 1.30743e-06 0)
(0.920412 1.8795e-06 0)